**LANTHANUM NITRATE HE **LANTHANUM NITRATE HEAHN **LANTHANUM NITRATE HEXAH **LANTHANUM NITRATE HEXAH MATERIAL SAFETY DATA SHEET EMERGENCY CONTACTS: AFTER BUSINESS HOURS; HOLIDAYS: (201) 796-7523
000011854
FISHER SCIENTIFIC CHEMICAL NOISIAIO e REAGENT LANE FAIR LAWN 2 07+10 C201) 796-7100
DATE:
05/19/89 ACCT: 558080-03 INDEX: 03891320023
GASTON L. PILLORI: C201) 796-7100 Od NBR: J018010 CHEMTREC ASSISTANCE: ca00) +29-9300 CAT NO. L10500
THE INFORMATION BELOW IS BELIEVED TO BE ACCURATE AND REPRESENTS THE BEST INFORMATION CURRENTLY AVAILABLE TO us, HOWEVER, 5 MAKE NO WARRANTY OF MERCHANTABILITY OR ANY OTHER WARRANTY, EXPRESS OR IMPLIED, WITH RESPECT TO SUCH INFORMATION, AND WE ASSUME NO LIABILITY RESULTING FROM ITS USE, USERS SHOULD MAKE THEIR OWN INVESTIGATIONS TO DETERMINE THE SUITABILITY OF THE
INFORMATION FOR THEIR PARTICULAR PURPOSES, SUBSTANCE: **LANTHANUM NTTRATE HEXAHYDRATE** LANTHANUM(III) NITRATE, HEXAHYDRATE a : NITRIO ACID, LANTHANUM(3+2 SALT, HEXAHYDRATE, LANTHANUM TRINITRATE HEXAHYDRATE; L-10; ACC12460
SUBSTANCE IDENTIFICATION
CAS-NUMBER 10277-43-7
TRADE NAMES/SYNONYMS: CHEMICAL FAMILY: INORGANIC SALT
MOLECULAR FORMULA: LA. N3-09. 6H20 MOLECULAR WEIGHT: 433.06
CERCLA RATINGS (SCALE 0-3)1 HEALTH: a FIREEO REACTIVITY:O PERSISTENCE:3
NFPA RATINGS (SCALE 0-+): HEALTH:2 FIREEO REACTIVITY:O
COMPONENTS AND CONTAMINANTS
COMPONENT: LANTHANUM NITRATE HEXAHYDRATE
PERCENT: 100
OTHER CONTAMINANTS: NONE EXPOSURE LIMITS:
NO OCOUPATIONAL EXPOSURE LTMITS ESTABLISHEC BY OSHA, ACGIH, OR NIOSH. DESCRIPTION: ODORLESS COLORLESS TO WHITE DELIQUESCENT TRICLINIC CRYSTALS,
PHYSICAL DATA
BOILING POINT: 259 F (126 C DECOMPOSES SPECIFIO GRAVITY: 1. o BOILING POINT: 259 F (126 C FIRE AND EXPLOSION HAZARD:
MELTING POINT: 10+ L C+0 C>
SOLUBILITY IN WATERI SOLUBLE FIRE AND EXPLOSION DATA
SOLVENT SOLUBILITY: SOLUBLE IN ALCOHOL. ACIDS, ACETONE NEGLIGIBLE FIRE HAZARD WHEN EXPOSED TO HEAT OR FLAME, MAY RESULT IN IGNITION, VIOLENT COMBUSTION 8 EXPLOSION, DRY CHEMICAL, CARBON DIOXIDE, HALON OR WATER SPRAY (1987 EMERGENCY RESPONSE GUIDEBOOK, DOT P S800.+). FOR LARGER FIRES. USE WATER SPRAY OR FOG C1987 EMERGENCY RESPONSE GUIDEBOOK, DOT d 5800,4). GUIDEBOOK, DOT L saoo, + GUIDE PAGE 353 POSSIBLE. EVACUATE TO A DISTANCE OF 2500 FEET.
OXIDIZER: OXIDIZERS DECOMP OSE, ESPECIALLY WHEN HEATED, TO YIELD OXYGEN OR OTHER GASES WHICH WILL INCREASE THE BURNING RATE OF COMBUSTIBLE MATTER. CONTACT WITH EASILY OXIDIZABLE, ORGANIC, OR OTHER COMBUSTIBLE MATERIALS
FIREFIGHTING MEDIA FIREFIGHTING:
MOVE CONTAINERS FROM FIRE AREA IF POSSIBLE, COOL CONTAINERS EXPOSED TO FLAMES WITH WATER FROM SIDE UNTIL WELL AFTER FIRE IS OUT. STAY AWAY FROM STORAGE TANK ENDS, FOR MASSIVE FIRE NI STORAGE AREA, USE UNMANNED HOSE HOLDER OR MONITOR NOZZLES; ELSE WITHDRAW FROM AREA AND LET FIRE BURN (1987 EMERGENCY RESPONSE FLOOD WITH WATER, COOL CONTAINERS. APPLY WATER FROM AS GREAT A DISTANCE AS DEPARTMENT OF TRANSPORTATION HAZARD CLASSIFICATION 49CFR172, 101:
TRANSPORTATION DATA
III
