SELANTHANUM NITRATE HE
**LANTHANUN NITRATE HEAHM
**LANTHANUN NITRATE HEXAH
SLANTHANUM NITRATE HEXAH
MATERIAL SAFETY DATA SHEET
EMERGENCY CONTACTS
AFTER RUSINESS HOURS; HOLIDAYS
(201) 790-7523

4SB110000

FISHER SCIENTIFIC
CHEMICAL DIVISION
- 1 BEOGENT LONK
FAIR LAWN 3 07410
201) 796- 7100

DATE: 05/19/89
ACCT: 558080- 2
TNDEX 03 3891320023

GASTON L. PILLORI: (201) 796-7100 PO NBR: J018010
CHEMTREC OSSISTANCE C800) 429-9300 CAT NO. L10500

THE INFORMATION BELOW IS BELIEVED TO BE ACCUBATE AND REPRESENTS THE BEST
INFORMATION CURRE ENTLY AVAILABLE TO US, HOWEVER, ME MAKE NO WARRANTY OF
MERCHANTABILITY OR ANY OTHER WARRANTY, EXPRESS OR IMPLIED. WITH RESP ECT TO
SUCH INFORMATION, AND 5 ASSUME NC LIABIL - TY RESULTING FROM ITS USE. USERS
SHOULD MAKE THEIR OWN INVESTIGIGATIONS TO DETERMINE THE SUITABILITY oF THE

TNEOBMATTON FOR THEIR PARTICULAR PURPOSES
SUBSTANOE: ELONTHANUM NITBATE HEXAHYDRATESS
LANTHANUMCIIIT NITRATE, HEXAHYDRATE 3 A: 6)
NITRIO ACID, LANTHANUME3+) SALT, HEXAHYORATE,
J ANTHANUM TRINITRATE HEXAHYORATE, L-10; ACCIi+60

SUSSTANCE IDENTIFICATION

CAS-NUMBER 10277-43-7

TRADE NOMESC/GYMONYMS
CHEMICAL FAMILY:
INORGANIC SALT

MOLECULOR FORMULA LA. N3-09, 6H20
MOLECULAR WEIGHT: +33.06

CERCLA RATINGS (SCALE 0-32: HEALTHE a FIREE 0 REACTIVITYSO PERSISTENCE::

NFPA RATINGS CSCALE 0-42: HEALTHE2 FIREEO a EACTIVITYS

COMPONENTS AND CONTAMINANTS

COMPONENTI LANTHANUM NETRATE Hi EXAHYDRATE

PERCENT: 100

OTHER MANUNINOS NONE
KP OSURE LIMITS:

No OSCUPATIONAL EXPOSURE LIMITS ESTABLISHEC BY OSHA, ACGIH, OR NIOSH,
DESCRIPTION ODORLESS COLORLESS TO WHITE DELIQUESCENT TRICLINIC CRYSTALS

PHYSICAL DAte

ROILING POINT: 259 F (126 C DECOMPOSES
SPECIFIC GRAVITY 1. D
BOILING POINT: an F (126 0>
FIRE AND EXPLOSION HAZARD:

MELTING POINT: 104 F C+0 C3

SOLURILITY IN WATERI SOLUBLE
FIRE AND EXPLOSTON DATA

SOLVENT SOLUBTILTTY SOLUBLE IN ALCOHOL. ACIDS, ACETONE
NEGLIGIBLE FIRE HAZARD WHEN EXPOSED TO HEAT OR FLAME,
MAY RESULT IN IGNITION, VIOLENT a COMBUSTION OR EXPLOSION,
DRY CHEMICAL, CARBON DIOXIDE. HOLON OR WATER SPRAY
(1987 EMERGENCY RESPONSE GUIDEBOOK, DOT P S800, +>.
FOR LOBGER FIRES. USE WATER SPRAY OR FOG
C1987 EMERGENCY RESP ONSE X00H90109 DOT P 5800, +>.
QUIDEBODK DOT P 5800, * GUIDE PAGE 5>
POSSIBLE. EVACUATE TO a DISTANCE OF 2500 FEET,

OXIDIZER: OXTDT7FRS DECOMPOSE ESP ECIALLY WHEN MZOTED TO YIFLD OXYGEN OR
OTHER GASES WHICH WILL INCREASE THE BURNING RATE OF COMBUSTTBL MATTER
CONTACT WITH EASILY OXIDIZABLE. OBCANTC. OR OTHER COMBUSTIBLE MATERIALS

3

FIREFIGHTING MEDTO:
FIREFIGHTING:

MOVE CONTATNERS FROM FIRE AREA IF POSSISLE, COOL CONTAINERS EXPOSED TO FLAMES
WITH WATER FROM SIDE UNTIL WELL AFTER FIRE IS OUT, STAY AUnU FROM STORAGE TONK
ENDS, FOR MASSIVE FIRE IN STORAGE AREA, USE UNMANNED HOSE HOL DER OR MONITOR
NOZZLES; ELSE TTHDBA FROM AREA AND LET FIRE BURN (1987 EMERGENCY RESPONSE
FLOOD WITH WATER. COOL CONTAINERS APPLY WATER FROM AS GREAT A DISTANCE AS
DEPARTMENT OF TRANSPORTATION HAZARD CLASSIFICATION 49CFR172, 101:

TBONSPOBTOTION DATA