HANUM NITROTE HT
**LANTHANUM NITRATE HEAHN
KLANTHANUM NITRATE HEXAH
* ANTHANUM NITRATE HEXAH
MATERIAL SAFETY DATA SHEET
EMERGENCY CONTACTS:
AFTER BUSINESS HOURS; HOLIDAYS:
(201) 796-7523

00001 1 854

FISHER SCIENTIFIC
CHEMICAL DIVISION
a REAGENT LANE
FAIR LAWN NJ 07+10
L 201) 796-7100

DATEI 05/19/89
ACCT: 558080-03
INDEXI 03891320023

GASTON - PILLORI: C201) 796-7100 PONBR: J018010
CHEMTREC ASSISTANCE: caoo) +29-9300 CAT NO. L10500

THE INFORMATION BELOW IS BELIEVED 0 BE ACCURATE AND REPRESENTS THE BEST
INFORMATION CURRENTLY AVAILABLE TO 5 HOWEVER, 5 MAKE NO WARRANTY OF
MERCHANTABILITY OR ANY OTHER WARRANTY, EXPRESS OR IMPL IED WITH RESP ECT TO
SUCH INFORMA TION, AND un ASSUME NO LARILI IT RESULTING FROM ITS USE, USERS
SHOULD MAKE THEIR OWN INVESTIGATIONS TC DETERMINE THE SUITABILITY OF - HE

INFORMATION FOR THEIR PARTICULAR PURPOSES,
SUBSTANCE: **LANTHANUM NITRATE HEXOHYDRATEX
LANTHANUMCITI) NITRATE HEXAHYDRATE - a
NITRIO ACID, ANT THANU > a SAL HEXAHYDRATE
LANTHANUM TRINITRATE HEXAHYDRATE, L-10: ACC12460

SUBSTANCE IDENTIFICA - TTON

CAS-NUMRER 10277-43-7

TRADE NAMES/ SYNONYMS,
CHEMICAL FAMILY:
INORGANIO SALT

MOL ECULAR FORMULA LA, N3-09. 6H20
MOL ECULAR WEIGHT: +33, 06

CERCLA RATINGS CSOALE 0-3)1 HEALTH= 2 FIRE:0 REACTIVITY:C PERSISTENCE:3

NFPA RATINGS CSCALE C * HEALTH= 1 FIRE=0 REACTIVITY:0

COMPONENTS AND CONTAMINANTS

COMPONENTI LANTHANUM NITRATE HEXAHYDRATE

PERCENT: 100

OTHER CONTOMINONTS NONE
EXP OSURE LIMITS:

NO OCCUPATIONAL EXPOSURE LIMITS ESTABLISHED BY OSHA, ACGIH, OR NIOSH,
DESCRIPTION: ODORLESS. COLORLESS TO WHITE DELIQUESCENT TRICLINIC CRYSTALS,

PHYSICAL DATA

BOILING POINT: 259 F (126 c> DECOMPOSES
SP ECIFIC GRAVITY: 1.0
BOILING POINT: 259 F C126 0>
FIRE AND EXPL OSION HAZARD

MELTING POINT: 10+ F C+0 e

SOLUBILITY IN WATERI SOLUBLE
FIRE AND EXPLOSION DATA

SOLVENT SOLUBILITY: SOLUBLE IN ALCOHOL, ACIDS, ACETONE
NEGLIGIBLE FIRE HAZARD WHEN EXPOSED TO HEAT OR FLAME.
MAY RESULT IN IGNITION, VIOLENT COMBUSTION OR EXPL OSION,
DRY CHEMICAL CARBON DIOXIDE, HALON OR WATER SPRAY
(1987 EMERGENCY RESPONSE GUIDEBOOK, DOT P S800, a
FOR LARG ER FIRES, USE WATER SPRAY OR FOG
(1987 EMERGENCY RESPONSE GUIDEBOOK, DOT P 5800, €
GUIDEBOOK, DOT - 5800, * GUIDE PAGE 35>
POSSIBLE, EVACUATE TO A DISTANCE OF 2500 FEET.

OXIDIZER: OXIDIZERS DECOMPOSE, ESPECIALLY WHEN HEATED. TO YIELD OXYGEN OR
OTHER GASES WHICH WILL INCREASE THE BURNING RATE OF COMBUSTIBL E MATTER,
CONTACT WITH EASIL y OXIDI: ZABL L ORGANIC OR OTHER COMBUSTIBLE MATERIALS

FIREFIGHTING MEDIA
FIREFIGHTING:

MOVE CONTAINERS FROM FIRE AREA IF d OSSIBLE, COOL CONTAINERS EXPOSED TO FLAMES
WITH WATER FROM SIDE UNTIL WELL AFTER FIRE SI OUT, STAY AWAY FROM STORAGE TANK
ENDS, FOR MASSIVE FIRE IN STORAGE AREA, USE UNMANNED HOSE HOLDER OR MONITOR
NOZZLI ES: EL SE WITHDRAW FROM AREA AND LET FIRE BURN (1987 EMERGENCY RESPONSE
FL OOD WITH WATER, COCL CONTAINERS APPLY WATER FROM AS GREAT A DISTANCE AS

RTOT LION DATA
TR

DEPARTMENT OF TRI

- - TAT a HAZORE

-