(KLANTHANUM NITRATE HT **LANTHANUM NITRATE HEAHM XXLANTHANUM NITRATE HEXAH **LANTHANUM NITRATE HEXAH MATERIAL SAFETY DATA SHEET EMERGENCY CONTACTS: AFTER RUSINESS HOURS: HOLIDAYS: C201) 796-7523
0000 - 185 4
FISHER SCIENTIFIC CHEMICAL DIVISION 1 REAGENT LANE FAIR LAWN NJ 07410 C201) 796-7100
DATE: 05/19/89 ACCT: 5580-03 INDEXI 03891320023
GASTON L PILLORI C201) 796-7100 PO NBR: otostar CHEMTREC OSSISTANCE C800) 429-9300 CAT NO: L10500
THE INFORMATION BELOW IS BELIEVED TO BE ACCURATE AND REPRESENTS THE BEST INF CORMATION CURRENTLY AVAILABLI F TO US, HOWEVER, WE MAKE NO WARRANTY OF MERCHANTABILITY ar ANY OTHER WARRANTY, EXP - RESS OR IMPLIED WITH RESP ECT TO SUCH INFORMATION, AND WE ASSUME NO LIABILITY RESULTING FROM ITS USE. USERS SHOULD MAKE THEIR OWN INVESTIGATIONS TO DETERMINE THE SUITABILITY OF THE
INFORMATION FOR THEIR PARTICULAR PURPOSES, SUBSTANCE: **LANTHANUM NITRATE HEXAHYDRATES à L ANTHANUMCIII NITRATE, HEXAHYDRATE : 3: 61 NITRIO ACID, ANTHANUMC34 SALT, HEXAHYDRATE LANTHANUM TNTTRI TE HEXAHYDRATE L-10, ACC12460
SUBSTONCE IDENTIFIC
CAS NUMBER 10277-43-7
TRADE NAMES/SYNONYMS CHEMICAL FAMILY: INORGANIC SALT
MOL ECULAR FORMULA LA. N3-09. 6H20 MOL ECULAR WEIGHT: 433. 06
CERCLA RATINGS CSCALE 0-3) HEALTHE a FIREEO 9-A1101,NILOUE PERSISTENCE:3
NFPA RATINGS CSCALE 0-4): HEALTH=2 FIREEO REACTIVITY: a
COMPONENTS AND CONTAMINONTS
COMP ONENT: LANTHANUM NITRATE HEXAHYDRATE
PERCENT: 100
OTHER CONTOMINTS NONE EXP OSURE LIMITS:
NO OCCUPATIONAL EXPOSURE LTMTS ESTABLISHED BY OSHA, ACGIH, OR NIOSH, DESCRIPTION ODORLESS, COLORLESS TO WHITE DELIQUESCENT TRICLINIC CRYSTALS
PHYSICAL DATA
BOILING POINT: 259 F C126 C DECOMP OSES SPEOIFIC GRAVITY: 1.0 BOILING POINT: 259 F C12G 0) FIRE AND EXPLOSION HOZARD
MELTING POINT: 10't F C40 C
SOLURILITY IN WATERI SOLUBLE FIRE AND EXPLOSION DATA
SOLVENT SOLUBILITY: SOLUBLE AN ALCOHOL, ACIDS, ACETONE NEGLIGIBLE FIRE HAZARD WHEN EXPOSED TO HEAT OR FLAME, MAY RESULT IN IGNITION VIOLENT COMBUSTION OR EXPLOSION. DRY CHEMICAL. CARBON DIOXIDE, HALON OR WATER SPRAY C1987 EMERGENCY RESP ONSE GUIDEBOOK, DOT P S800, € FOR LARGER FIRES, USE WATER SPRAY OR FOG C198 7 EMERGENCY RESPONSE GUIDEBOOK. DOT P 5800.43. GUIDEBOOK, DOT P 5800, * GUIDE PAGE 352 POSSIBLE, EVACUATE TO A DISTANCE OF 2.500 FEET.
OXIDIZER: OXIDIZERS DECOMP OSE, ESP ECIALLY WHEN HEATED TD YIELD OXYGEN OR OTHER GASES WHICH WILL INCREASE THE BURNING RATE OF COMBUSTIBL E MATTER, CONTACT WITH EASIL Y OXIDIZABLE, ORGANIC, OR OTHER COMBUSTIBLE MATERIALS
FIREFIGHTING MEDIA: FIREFIGHTING
MOVE CONTAINERS FROM FIRE AREA IFF POSSIBLE COOL CONTAINERS EXP OSED TO FLAMES WITH WATER FROM SIDE UNTIL WELL AFTER FIRE IS OUT. STAY L WAY FROM STORAG E TANK ENDS, FOR MASSIVE FIRE IN ST ORAGE AREA, USE UNMANNED HOSE HOLDER OR MONITOR NOZZLES; ELSE WITHDRAW FR OM AREA AND LET FIRE BURN C1987 EMERGENCY RESP ONSE FLOOD WITH WATER. COOL CONTAINERS APPLY WATER FROM AS GREAT A DISTANCE AS DEPARTMENT OF TRONSPORTATION HAZARE CLASSIFICATION 4:9CFR1 72, 101
TRANSP ORTATION DATA
