**LANTHANUM NITRATE HE
**LANTHANUM NITRATE HEAHR
**LANTHANUM NITRATE HEXAH
**LANTHANUM NITRATE HEXAH
MATERIAL SAFETY DATA SHEET
EMERGENCY CONTACTS:
AFTER BUSINESS HOURS; HOLIDAYS:
(201) 796-7523

000011854

FISHER SCIENTIFIC
CHEMICAL NOISIAIO
a REAGENT LANE
FAIR LAWN E 07+10
C201) 796-7100

DATEI

05/19/89
ACCT: 558080-03
INDEX 03891320023

GASTON L PILLORI: C201) 796-7100 Od NBR: J018010
CHEMTREC ASSISTANCE: caoo) +29-9300 CAT NO. L10500

THE INFORMATION BELOW IS BELIEVED TO BE ACCURATE AND REPRESENTS THE BEST
INFORMATION CURRENTLY AVAILABLE TO US, HOWEVER, : MAKE NO WARRANTY OF
MERCHANTABILITY OR ANY OTHER WARRANTY, EXPRESS OR IMPLIED, WITH RESPECT TO
SUCH INFORMATION, AND WE ASSUME NO LIABILITY RESULTING FROM ITS USE, USERS
SHOULD MAKE THEIR OWN INVESTIGATIONS TO DETERMINE THE SUITABILITY OF THE

INFORMATION FOR THEIR PARTICULAR PURPOSES,
SUBSTANCE: **LANTHANUM NITRATE HEXAHYDRATE**
LANTHANUMCITI> NITRATE, HEXAHYDRATE : :
NITRIO ACID, LANTHANUMC3+) SALT, HEXAHYDRATE,
LANTHANUM TRINITRATE HEXAHYDRATE, L-10: ACC12460

SUBSTANCE IDENTIFICATION

CAS-NUMBER 10277-43-7

TRADE NAMES/SYNONYMS:
CHEMICAL FAMILY:
INORGANIO SALT

MOLECULAR FORMULAI LA. N3-09. 6H20
MOLECULAR WEIGHT: 433.06

CERCLA RATINGS CSOALE 0-3)1 HEALTHE 2 FIRE:0 REACTIVITY=0 PERSISTENCE:3

NFPA RATINGS CSCALE 0-4): HEALTH:2 FIRE=0 REACTIVITY:0

COMPONENTS AND CONTAMINANTS

COMPONENTI LANTHANUM NITRATE HEXAHYDRATE

PERCENT: 100

OTHER CONTAMINANTSI NONE
EXPOSURE LIMITS:

NO OCCUPATIONAL EXPOSURE LIMITE ESTABLISHED BY OSHA, ACGIH, OR NIOSH.
DESCRIPTION: ODORLESS. COLORLESS TO WHITE DELIQUESCENT TRICLINIC CRYSTALS,

PHYSICAL DATA

BOILING POINT: 259 F (126 9 DECOMPOSES
SPEOIFIC GRAVITY: 1. 0
BOILING POINT: 259 F (126 9
FIRE AND EXPLOSION HAZARDI

MELTING POINT: 104 L C+0 c>

SOLUBILITY IN WATERI SOLUBLE
FIRE AND EXPLOSION DATA

SOLVENT SOLUBILITY: SOLUBLE IN ALCOHOL, ACIDS, ACETONE
NEGLIGIBLE FIRE HAZARD WHEN EXPOSED TO HEAT OR FLAME,
MAY RESULT IN IGNITION, VIOLENT COMBUSTION 6 EXPLOSION,
DRY CHEMICAL, CARBON DIOXIDE, HALON OR WATER SPRAY
(1987 EMERGENCY RESPONSE GUIDEBOOK, DOT P 5800.4).
FOR LARGER FIRES, USE WATER SPRAY OR FOG
C1987 EMERGENCY RESPONSE GUIDEBOOK. DOT d 5800,4).
GUIDEBOOK, DOT a 5800, i GUIDE PAGE 35)
POSSIBLE. EVACUATE TO A DISTANCE OF 2500 FEET.

OXIDIZER: OXIDIZERS DECOMP OSE, ESPECIALLY WHEN HEATED, TO YIELD OXYGEN OR
OTHER GASES WHICH WILL INCREASE THE BURNING RATE OF COMBUSTIBLE MATTER.
CONTACT WITH EASILY OXIDIZABLE, ORGANIC, OR OTHER COMBUSTIBLE MATERIALS

FIREFIGHTING MEDIA
FIREFIGHTING:

MOVE CONTAINERS FROM FIRE AREA IF POSSIBLE, COOL CONTAINERS EXPOSED TO FLAMES
WITH WATER FROM SIDE UNTIL WELL AFTER FIRE IS OUT, STAY AWAY FROM STORAGE TANK
ENDS, FOR MASSIVE FIRE NI STORAGE AREA, USE UNMANNED HOSE HOLDER OR MONITOR
NOZZLES; ELSE WITHDRAW FROM AREA AND LET FIRE BURN C1987 EMERGENCY RESPONSE
FLOOD WITH WATER, COCL CONTAINERS, APPLY WATER FROM AS GREAT A DISTANCE AS
DEPARTMENT OF TRANSPORTATION HAZARD CLASSIFICATION 49CFR172, 101:

TRANSPORTATION DATA

III