*KLANTHANUM NITRATE HE *KLANTHANUM NITRATE HEAMA *XLANTHANUM NITRATE REXAH LANTHANUM NITRATE HEXAH MATERIAL SAFETY DATA SHEET EMERGENCY CONTACTS AFTER RUSINESS HOURS; HOLIDAYS C201) 796-7523
VSBLI0000
FISHER SCIENTIFIC CHEMICAL DIVISION - - REOGENT LANK FAIR LAWN 2 07'10 r2015 796- 7100
DATE: 05/19/89 ACCT: 558080- - TNDEX 03 3891320023
GASTON L. PILLORI: C201) 796-7100 PO NBR: J018010 CHEMTREC ASSISTANCE, C800) 29-9300 CAT NO: L10500
THE INFORMATION BELOW IS BELIEVED TO BE ACCURATE nwNc REPRESENTS THE BEST INFORMATION CURRE ENTLY AVAILABLE TO us, HOWEVER, :m MAKE NO WARRANTY OF MERCHANTABILITY aR ANY OTHER WARRANTY, EXPRESS OR IMPLIKD. WITH RESP ECT TO SUCH INFORMATION. nND 5 ASSUME NO LIABIL - TY RESULTING FROM ITS USE. USERS SHOULD MAKE THEIR OWN INVESTIGIGATIONS To DETERMINF THE SUITABILITY oF THE
TNFOPMATTON FOR THEIR PARTICULAR PURPOSES, SUBSTANCE: LONTHANUM NTTRATR HEXAHYDRATESS LANTHANUMCIII) NITRATE, HEXAHYDRATE 3 3: 6) NITRIO AOID, LANTHANUMC3-) SALT, MEXAHYDRATE, . ANTHANUM TRINITRATE HEXAHYDRATE, L-10, ACCI460
SUBSTANCE IDENTIFICATION
CAS-NUMBER 10277-43-7
TRADE MAMES/SVNONVMS. CHEMICAL FAMILY: INORGANIO sALT
MOLECLAR FORMULA LA. N3-09. 6H20 MOLECULAR WEIGHT: 433.06
CERCLA RATINGS CSCALE 0-331 HEALTH: a FIREE a REACTIVETYED PERSISTENCE=
NFPA RATINGS CSCALE 0-4): HEALTH2 FIRE=O - EACTIVITY:
COMPONENTS ANC CONTAMINANTS
COMPONENT: LANTHANUM NTRATE Hi EXAHYDRATE
PERCENT: 100
OTHER SNUNNOINpe NONE A*F OSURE LIMITS:
NO OOCUPATIONAL EXPOSURE LIMITS ESTABLISHEE BY OSHA, ACGIH, OR NIOSH, DESCRIPTION ODORLESS, COLORLESS TO WHITE DELIQVESCENT TRICLINTC CRYSTALS
PHYSICAL DATA
BOILING POINT: 259 F C126 o3 DECOMPOSES SPEOTDIPIC CRAVITY 1. o BOILING POINT: 2 # C126 0) FIRE AND EXPLOSION HAZARD:
MELTING POINT: 1o* F C40 os
SOLURILITY TN WATERI SOLUBLE FIRE AND EXPLOSTON DATA
SOLVENT SOLURTILITY: SOLUBLE IN ALCOHOL. ACIDS, OCETON NEGLIGIRLE FIRE HAZARD WHEN EXPOSED TO HEAT OR FLAME. MAY RESULT IN IGNITION, VIOLENT a OMBUSTION OR EXPLOSION, aRV CHEMICAL. CARBON DIOXIDE, HOLON OR WATER SPRAY C1987 EMERGENCY RESPONSE GUIDEBOOK, DOT P 5800, 1. FOR LARGER FIRES, USE WATER SPRAY OR FOG C1987 EMERCENCY RESP ONSE 200F3gne DOT P 5800. 4). GUIDEBOOK, DOT P 5800, * GUIDE PAGR * POSSIBLE. EVACUATE TO A DISTANCE OF 2500 FEET.
OXIDIZER: AXTOTZFRS DECOMPOSK. ESP ECIALLY MHEN MATEN TO VIELD OXYGEN OR OTHER CASKS WHIOH WILL INCREASE THE BURNING RATE OF COMBIISTTRLS MATTED CONTACT WITH EASILY oXIDIZARLE. ORCANC. OR OTHER COMBUSTIBLE MATERIALS
-
FIREFIGHTING MEDTA: FIREFIGHTING:
MOVE CONTAINERS FROM FIRE AREA IF POSSIBLE, cOOL CONTAINERS EXPOSED TO FLAMES WITH WATER FROM SIDE UNTIL WELL AFTER FIRE Is OUT. STAY AunU FROM STORAGE TANK ENDS. FOR MASSIVE FIRE IN STORAGE AREA, USE UNMANNED HOSE HOL DER OR MONITOR NOZZLES; ELSE TTMDRO FROM AREA AND LET FIRE BURN C1987 EMERGENCY RESPONSE FLOOD WITH WATER. cooL CONTAINERS. APPLY WATER FROM AS GREAT A DISTANCS As DEPARTMENT oF TRANSPORTATION HAZARE CLASSIFICATION 49CFR172. 101:
TRANSPORTATION DATA
