*KLANTHONUM NITRATE HE *KLANTHANUM NITRATE HEAaA LANTHANUM NITRATE HEXAH AXLANTHANUM NITRATE HEXAH MATERIAL SAFETY DATA SHEET EMERGENCY CONTACTS: AFTER BUSINESS HOURS, HOLIDAYS: C201) 796-7523
F
0000 1 1 854
FISHER SCIENTIFIC CHEMICAL DIVISION 1 REAGENT LANE FAIR LAWN 2 - 07'410 C201) 796-7100
DATE: 05/19/89 ACCT: 558080-03 INDEXI 03891320023
GASTON - PILLORI: C201) 796-7100 PO NBR: J018010 CHEMTREC ASSISTANOE: C800) 29.930r CAT NO: Li0500
THE INFORMATION BELOW IS BELIEVED TO BE ACCURATE AND REPRESENTS THE BEST INF ORMATION CURRENTLY AVAILABLE - TO us, HOWEVER, WE MAKE NO WARRANTY OF MERCHANTABILETY aR ANY OTHER WARRANTY, EXPRESS OR IMPLIED WITH RESPECT TO SUCH INFORMATION, AND WE ASSUME NO LIABILITY RESULTING FROM ITS USE. USERS SHOULD MAKE THEIR OWN INVESTIGATIONE TO DETERMINE THE SUITABILITY OF THE
INFORMATION FOR THEIR PARTICULAR PURPOSES. SUBSTANCE: LONTHANUM NTTRATE HEXAHYDRATERN LANTHANUMC IIIS NITRATE, HEXAHYDRATE 5 3: 631 NITRIO AOID LANTHANUMG : SALT. MEXAHYDRATE, LANTHANUM TRINITRATE HEXAKYDRATE, L 10, ACC12460
SUBSTANCE IDENTIFICATION
CAS- NUMB a ER 10277-43-7
TRADE NAMES/ SWANONAS, CHEMICAL FAMILY: INORGANIO SALT
MOL FOULAR FORMULA: LA. N3- 09, 6H20 MOL ECULAR WEIGHT: 433. 06
CERCLA RATINGS CSOALE 0-331 HEALTHE a FIREE a REACTIVITY: C PERSISTENCE:3
NFPA RATINGS CSCALE 0-4): HEALTH: a FIREEO REACTIVITY:D
-
-
COMPI ONENTS AND CONTAMENANTS
COMP ONENT LANTHANUM NITRATE HEXAHYDRATE
PERCENT: 100
OTHER CONTAMINANTS NONE EXP OSURE LIMITS:
NO o0OuP ATIONAL EXP OSURE LIMTTS ESTARLISHEC BY OSHA, ACGIH, OR NIOSH. DESCRIPTION: ODORLESS COLORLESS TO WHITE DELIQVESCENT TRICLINTC CRYSTALS
PHYSICAL DATA
BOILING POINT: 259 F C126 e) DECOMP OSES SPEOIFIC GRAVITY, - o BOILING POINT: 259 # c1a6 0) FIRE AND EXPLOSION wazaen
MELTTNE POINT: 104 F C4o C)
SOLURILITY TN WATER SOLUBLE FIRE AND EXPLOSION DATA
SOLVENT SOLURTILITY: SOLUBLE NI ALCOHOL. acIns. ACETONE NEGLIGIBLE FIRE HAZARD WHEN EXPOSED TO HEAT OR FLAME. MAY RESULT IN IGNITION. VIOLENT COMBUSTION OR EXPL OSION, DRY CHEMICAL, CARBON DIOXIDE. HALON OR WATER SPRAY C1987 EMERGENCY RESP ONSE GUIDEBOOK, DOT a 5800. 4>. FOR LARGER FIRES, USE WATER SPRAY OR FoG C1987 EMERGENCY RESP ONSE GUIDEBOOK, DOT P 5800, $ GUIDEBODK, DOT  5800, * GUIDE PAGK 35) POSSIBLE. EVACUATE TO A DISTANCE OF 2500 FEET.
OXIDIZER: OXIDIZERS DECOMP OSE. ESP ECIALLY WHEN HEATED, 9 YIELD OXYGEN OR OTHER GASES WHICH WILL INCREASE THE BURNING RATE OF COMBUSTIELE MATTER. CONTACT WITH EASILY OXIDIZABLE, ORGANIC, OR OTHER COMBUSTIBLE MATERIALS
FIREFIGHTING MEDIA: FIREFIGHTING:
MOVE CONTAINERS FROM FIRE AREA IF POSSIBLE COOL CONTAINERS EXPOSED TO FLAMES HIIA WATER FROM SIDE UNTIL WELL AFTER FIRE SI OUT, STAY AWAY FROM STORAGE TANK ENDS. FOR MASSIVE FIRE NI STORAGE AREA, USE UNMANNED HOSEHOLDER OR MONITOR NOZZLES, ELSE WITHDRAW FROM AREA AND LET FIRE BURN C1987 EMERGENCY RESPONSE FLOOD WITH WATER. COOL CONTAINERS APPLY WATER FROM AS GREAT A DISTANCE As DEPARTMENT OF TRANSPORTATION HAZARE CLASSIFICATION 49CFR172. 101
TRANSPORTATION DATA
:
