**LANTHANUM NITRATE HE **LANTHANUM NITRATE HEAHN **LANTHANUM NITRATE HEXAH *LANTHANUM NITRATE HEXAH MATERIAL SAFETY DATA SHEET EMERGENCY CONTACTS: AFTER RUSINESS HOURS; HOLIDAYS (201) 796-7523
*S8110000
FISHER SCIENTIFIC CHEMICAL DIVISION - - REOGENT LANE FAIR LAWN 2 07+10 r201) 796-1 7100
DATE: 05/19/89 ACCT: 558080-0 a INDEX 03 3891320023
GASTON L. PILLORI: (201) 796-7100 PO NBR: J018010 CHEMTREC ASSISTANCE: ca00) +29-9300 CAT NO. L10500
THE INFORMATION BELOW IS BELIEVED TO BE ACCURATE OND REPRESENTS THE BEST INFORMATION CURRE ENTLY AVAILABLE TO us, HOWEVER, WE MAKE NO WARRANTY OF MERCHANTABILITY OR ANY OTHER WARRANTY, EXPRESS OR IMPLIED. WITH RESP ECT TO SUCH INFORMATION, OND 5 ASSUME NO LIABIL - TY RESULTING FROM ITS USE, USERS SHOULD MAKE THEIR OWN INVESTIGATIONS TO DETERMINE THE SUITABILITY OF THE
INFORMATTON FOR THEIR PARTICULAR PURPOSES, SUBSTANCE: *LONTHONUM NTTRATE HEXAHYDRATEXX LANTHANUMCIII) NITRATE, HEXAHYDRATE 3 3: 6) NITRIO ACID, LANTHANUM(3+) SALT, HEXAHYDRATE, - ANTHANUM TRINITRATE HEXAHYDRATE; L-10; ACC12+60
SUBSTANCE IDENTIFICATION
CAS-NUMBER 10277-43-7
TRADE NAMEC/GVNONYMS. CHEMICAL FAMILY: INORGANIC SOLT
MOLECULAR FORMULA LA. N3-09. 6H20 MCLECULAR WEIGHT: 433.06
CERCLA RATINGS (SOALE 0-321 HEALTHE: a FIREE 0 REACTIVITY:O PERSISTENCE:3
NFPA RATINGS CSCALE 0-+): HEALTH:2 FIRE:O T EACTIVITY:
COMPONENTS AND CONTAMINANTS
COMPONENT LANTHANUM NITRATE Hi EXAHYDRATE
PERCENT: 100
OTHER SINUNINOINOS NONE EXP OSURE LIMITS:
NO OCCUPATIONAL EXPOSURE LIMITS ESTABLISHEC BY OSHA, ACGIH, OR NIOSH, DESCRIPTION ODORLESS, COLORS TO WHITE DELIQUESCENT TRICLINTC CRYSTALS
PHYSICAL DATA
BOILING POINT: 259 F (126 C) DECOMPOSES SPEOIFIC GRAVITY 1. o BOILING POINT: ase F (126 o FIRE AND EXPLOSION HAZARD:
MELTING POINT: 10+ F C+0 C>
SOLURTY IN WATER: SOLUBLE FIRE AND EXPLOSTON DATA
SOLVENT SOLURTILITY: SOLUBLE IN ALCOHOL. ACIDS, ACKTONE NEGLIGIBLE FIRE HAZARD WHEN EXPOSED TO HEAT OR FLAME, MAY RESULT IN IGNITION, VIOLENT a COMBUSTION OR EXPLOSION, DRY CHEMICAL. CARBON DIOXIDE, HOLON OR WATER SPRAY (1987 EMERGENCY RESPONSE GUIDEBOOK, DOT P ssoo. +>. FOR LARGER FIRES, USE WATER SPRAY OR FOG C1987 EMERGENCY RESP ONSE x0083130109 DOT P 5800. +>. GUIDEBOOK. DOT P saoo, * GUIDE PAGE 353 POSSIBLE. EVACUATE TO A DISTANCE OF 2500 FEET.
OXIDIZER: OXTDTZERS DECOMPOSE. ESP ECIALLY WHEN MEATED TO YIELD OXYGEN OR OTHER GASES WHICH WILL INCREASE THE BURNING RATE OF COMBIISTTBLE MATTER CONTACT WITH EASILY OXIDIZABLE. ORGANIC. OR OTHER COMBUSTIBLE MATERIALS
A
FIREFIGHTING MEDTO: FIREFIGHTING:
MOVE CONTATNERS FROM FIRE AREA IF POSSIBLE, COOL CONTAINERS EXPOSED TO FLAMES WITH WATER FROM SIDE UNTIL WELL AFTER FIRE IS OUT, STAY AUMU FROM STORAGE TONK ENDS, FOR MASSIVE FIRE IN STORAGE AREA, USE UNMANNED HOSE HOL DER OR MONITOR NOZZLES; ELSE WTTHDROW FROM AREA AND LET FIRE BURN (1987 EMERGENCY RESPONSE FLOOD WITH WATER. COOL CONTAINERS. APPLY WATER FROM AS GREAT A DISTANCE AS DEPARTMENT OF TRANSPORTATION HAZARD CLASSIFICATION 49CFR172, 101:
TRANSPORTATION DATA
