**L ANTHANUM NITROTE HE
**LANTHANUM NITRATE HEAHM
**LANTHANUM NITRATE HEXAH
**LANTHANUM NITRATE HEXAH
MATERIAL SAFETY DATO SHEET
EMERGENCY CONTACTS:
AFTER BUSINESS HOURS: HOLIDAYS:
C201) 796-7523

0000 1 1854

FISHER SCIENTIFIC
CHEMICAL DIVISION
1 REAGENT LANE
FAIR LAWN NJ 07+10
C201) 796-7100

DATEI

05/19/89
ACCT: 558080-03
INDEX: 03891320023

GASTON L PILLORI: C201) 796-7100 PO NBR: J018010
CHEMTREC ASSISTANCE: ca0o) +29-9300 CAT NO. L10500

THE INFORMATION BELOW IS BELIEVED TO BE ACCURATE AND REPRESENTS THE BEST
INFORMATION CURRENTLY AVAILABLE TO US, HOWEVER, WE MAKE NO WARRANTY OF
MERCHANTABILITY OR ANY OTHER WARRANTY. EXP RESS OR IMPLIED. WITH RESP ECT TO
SUCH INFORMATION. AND WE ASSUME NO LIABILITY RESULTING FROM ITS USE USERS
SHOULD MAKE THEIR OWN INVESTIGATIONS TO DETERMINE THE SUITABILITY OF THE

INFORMATION FOR THEIR PARTICULAR PURPOSES,
SUBSTANCE: **LANTHANUM NITRATE HEXAHYRRATEX
LANTHANUMCIII) NITRATE, HEXAHYDRATE 3 3: 6):
NITRIO ACID, LANTHANUMC 3+) SALT, HEXAHYDRATE
LANTHANUM TRINITRATE HEXAHYDRATE, L-10; ACC12460

SURSTANCE TDENTIFICATT ION

CAS-NUMBER 10277-43-7

TRADE NAMES/ SYNONYMS,
CHEMICAL FAMILY:
INORGANIC SALT

MOL ECULAR FORMULA: LA, N3-09. 6H20
MOLECuLLR WEIGHT: +33. 06

CERCLA RATINGS (SCALE 0-3) HEALTH:R FIRES - EAAIA110VS8 PERSISTENCE:2

NFPA RATINGS CSCALE 0-+): HEALTH=2 FIRE=O REACTIVITYEC

COMPONENTS AND CONTAMINANTS

COMPONENT: LANTHANUM NITRATE HEXAHYDRATE

PERCENT: 100

OTHER CONTAMINANTS NONE
EXP OSURE LIMITS:

NO OCOUP ATIONAL EXPOSURE LIMITS ESTABLISHEC BY OSHA, ACGIH, OR NIOSH,
DESCRIPTION, ODORLESS, COLORLESS TO WHITE DELIQUESCENT TRICLINIC CRYSTALS

PHYSICAL DATA

BOILING POINT: 259 F (126 c) DECOMP OSES
SPECIFIC GRAVITY: 1.0
BOILING POINT: 259 F (126 0)
FIRE AND EXPLOSION HAZARD:

MELTING POINT: 104 F C+0 c

SOL UBILITY IN WATERI SOLUBLE
FIRE AND EXPLOSION DATA

SOLVENT SOLUBILITY: SOLUBLE NI ALCOHOL, ACIDS, ACETONE
NEGLIGIBLE FIRE HAZARD WHEN EXPOSED TO HRAT OR FLAME,
MAY RESULT IN IGNITION, VIOLENT COMRUSTION OR EXPLOSION,
DRY CHEMICAL, CARBON DIOXIDE, HALON OR WATER SPRAY
C198 7 EMERGENCY RESPONSE GUIDEBOOK, DOT P S800, 2
FOR LARGER FIRES. USE WATER SPRAY OR FOG
C1987 EMERGENCY RESPONSE GUIDEEROOK DOT P 5800, 4
GUIDEBOOK, DOT P 5800, * GUIDE PAGE 35)
POSSIBLE. EVACUATE TO A DISTANCE OF 2500 FEET.

OXIDIZER: OXIDIZERS DECOMP OSE. ESP ECIALLY WHEN HEATED, TO YIELD OXYGEN OR
OTHER GASES WHICH WILL INCREASE THE BURNING RATE OF COMBUSTIBLE MATTER,
CONTACT WITH EASIL > OXIDIZARLE. ORGANIC, OR OTHER COMBUSTIBLE MATERIAL a

-

FIREFIGHTING MEDIA
FIREFIGHTING:

MOVE CONTAINERS FROM FIRE AREA IF POSSIBLE, COOL CONTAINERS EXPOSED TO FLAMES
WITH WATER FROM SIDE UNTIL WELL AFTER FIRE IS OUT. STAY AWAY FROM STORAGE TANK
ENDS, FOR MASSIVE FIRE IN STORAGE AREA, USE UNMANNED HOSE HOLDER OR MONITOR
NOZZLES; ELSE WITHDRAW FROM AREA AND LET FIRE BURN (1987 EMERGENCY RESPONSE
FLOOD WITH WATER. COOL CONTAINERS APPLY WATER FROM AS GREAT A DISTANCE AS
DEP ARTMENT OF TRANSPORTATION HAZARD CLASSIFICAAION +9CFR172. 101:

TRANSPORTATION DATA

un