(*LANTHANUM NITRATE HE
**LANTHANUM NITRATE HEAHN
*XLANTHANUM NITRATE HEXAH
**LANTHANUM NITRATE HEXAH
MATERIAL SAFETY DATA SHEET
EMERGENCY CONTACTS:
AFTER RUSINESS HOURS, HOLIDAYS:
(201) 796-7523

0000 L 185. 4

FISHER SCIENTIFIC
CHEMICAL DIVISION
1 REAGENT LANE
FAIR LAWN NJ 07+10
C201) 796-7100

DATE: 05/19/89
ACCT:
558080-03
INDEX: 03891320023

GASTON L PILLORI C201) 796-7100 PO NBR: OT08TOr
CHEMTREC ASSISTANCE cao0) +29-9300 CAT NO. L10500

THE INFORMATION BELOW IS BELIEVED TO BE ACCURATE AND REPRESENTS THE BEST
INF ORMATION CURRENTLY AVAILABL L TO us, HOWEVER, WE MAKE NO WARRANTY OF
MERCHANTABILITY OR ANY OTHER WARRANTY, EXP a RESS OR IMPLIED WITH RESP ECT TO
SUCH INFORMATION, AND WE ASSUME NO LIABILITY RESULTING FROM ITS USE, USERS
SHOULD MAKE THEIR OWN INVESTIGATIONS TO DETERMINE THE SUITABILITY OF THE

INFORMATION FOR THEIR PARTICULAR PURPOSES,
SUBSTANCE: **LANTHANUM NITRATE HEXAHYDRATEZ à
- ANTHANUMCIII: NITRATE, HEXAHYDRATE 3 3: 63
NITRIC ACID. ANTHANUMC3+) SALT, HEXAHYDRATE
LANTHANUM ITNTTR TE HEXAHYDRATE L-10; ACC12+60

SURSTANCE IDENTIFIC

CAS NUMBER 10277-43-7

TRADE NAMES/SYNONYMS:
CHEMICAL FAMILY:
INORGANIC SALT

MOL ECULAR FORMULA LA, N3-09, 6H20
MOL ECULAR WEIGHT: +33, 06

CERCLA RATINGS (SCALE 0-3)1 HEALTH= a FIREEO FALINIaa PERSISTENCE:3

NFPA RATINGS CSCALE 0-+): HEALTH:2 FIREED REACTIVITY: a

COMPONENTS AND CONTAMINONTS

COMP ONENT: LANTHANUM NITRATE HEXAHYDRATE

PERCENT: 100

OTHER CONTOMINANTS NONE
EXP OSURE LIMITS:

NO OCOUPATIONAL EXPOSURE ITMTTS ESTABLISHEC BY OSHA, ACGIH, OR NIOSH,
DESCRIPTION: ODORLESS, COLORLESS TO WHITE DELIQUESCENT TRICLINTC CRYSTALS

PHYSICAL DATA

BOILING POINT: 259 F (126 C) DECOMP OSES
SPECIFIC GRAVITY: 1.0
BOILING POINT: 259 F (126 o
FIRE AND EXPLOSION HOZORD

MELTING POINT: 10+ F C+0 CI

SOLURTY IN WATERI SOLUBLE
FIRE AND EXPLOSION DATA

SOLVENT SOLUBILITY: SOLUBLE IN ALCOHOL. ACIDS, ACETONE
NEGLIGIBLE FIRE HAZARD WHEN EXPOSED TO HEAT OR FLAME,
MAY RESULT IN IGNITION VIOLENT COMBUSTION OR EXPLOSION.
DRY CHEMICAL, CARBON DIOXIDE. HALON OR WATER SPRAY
(1987 EMERGENCY RESP ONSE GUIDEBOOK, DOT P ssoo, :
FOR LARGER FIRES, USE WATER SPRAY OR FOG
C198 7 EMERGENCY RESPONSE GUIDEBOOK, DOT P 5800.+).
GUIDEBOOK, DOT P sao0. * GUIDE PAGE 353
POSSIBLE, EVACUATE TO A DISTANCE OF 2500 FEET.

OXIDIZER: OXIDIZERS DECOMP OSE, ESP ECIALLY WHEN HEATED TO YIELD OXYGEN OR
OTHER GASES WHICH WILL INCREASE THE BURNING RATE OF COMBUSTIBL E MATTER,
CONTACT WITH EASIL Y OXIDIZABLE, ORGANIC, OR OTHER COMBUSTIBLE MATERIALS

FIREFIGHTING MEDIA:
FIREFIGHTING

MOVE CONTAINERS FROM FIRE AREA IF POSSIBLE COOL CONTAINERS EXP OSED TO FLAMES
WITH WATER FROM SIDE UNTIL WELL AFTER FIRE IS OUT, STAY - WAY FROM STORAG E TANK
ENDS, FOR MASSIVE FIRE IN ST ORAGE AREA, USE UNMANNED HOSE HOLDER OR MONITOR
NOZZLES; ELSE WITHDRAW FR LOM AREA AND LET FIRE BURN (1987 EMERGENCY RESP ONSE
FLOOD WITH WATER. COOL CONTAINERS. APPLY WATER FROM AS GREAT A DISTANCE AS
DEPARTMENT OF TRONSPORTATION HAZARD CLASSIFICFICATION +9CFR1 72, 101

TRANSP ORTATION DATA