X*LANTHANUM NITBATE HE ERLANTHANUM NITRATE HEAHA ERLANTHANUN NITRATE HEXAH ERLANTHANUM NITRATE HEXAH MATERIAL SAFETY DATA SHEET EMERGENCY CONTACTS AFTER BUSINESS HOURS: HOLIDAYS: (201) 796-7523
F
0000 1 1 854
FISHER SCIENTIFIC CHEMICAL DIVISION 1 REAGENT LANE FAIR LAWN : 2 07410 C201) 796-7100
DATEI 05/19/89 ACCT: 558080-03 INDEX: 03891320023
GASTON a PILLORI: C201) 796-7100 PO NBR: J018010 CHEMTREC ASSISTANCE: C800) $29.9300 CAT NOI L10500
THE INFORMATION RELOW Is BELIEVED TO BE ACCURATE AND REPRESENTS THE BEST INF ORMATION CURRENTLY AVAILABLE - TO US, HOWEVER, WE MAKE NO WARRANTY OF MERCHANTABILITY OR ANY OTHER WARRANTY, EXPRESS OR IMPLIED WITH RESPECT TO SUCH INFORMATION, AND WE ASSUME NO LIABILITY RESULTING FROM ITS USE. USERS SHOULD MAKE THEIR OWN INVESTIGATIONS TO DETERMINE THE SUITABILITY of THE
INFORMATION FOR THEIR PARTICULAR PURPOSES, SUBSTANCE: ERLANTHANUM NITBATE HEXAMYDRATE** LANTHANUMC III) NITRATE, HEXAHYDRATE 5 3: 631 NITRIO ACID LANTHANUMO 3 SALT MEXANYDRATE, LANTHANUM TRINITRATE HEXANVORATE L- 10, ACC12+60
SUBSTANCE IDENTIFICATION
CAS- NUMB a ER 10277-43-1
TRADE NAMES/ ISWANONAS CHEMICAL FAMILY: INORGANIO SALT
MOL FouLas FORMULA LA. N3- 09. 6H20 MOL ECULAR WEIGHT: +33. 06
CERCLA RATINGS CSOALE 0-3)1 HEALTHa e FIREE o REACTIVITY: D PERSISTENCES3
NFPA RATINGS CSCALE 0-43: HEALTHs a FIRE=O REACTIVITYEC
-
-
COMPI ONENTS AND CONTAMINANTS
COMP ONENT LANTHANUM NITRATE MEXAHYDRATE
PERCENT 100
OTHER CONTAMINANTS NONE EXP OSURE LIMITS:
NO OCOUP ATIONAL EXP ASURE LIMTTS ESTABLISHEC BY OSHA, ACGIH, OR NIOSH. DESCRIPTION ODOBLESS COLOBLESS TO WHITE DELIQUESCENT TRICLINIC CRYSTALS
PHYSICAL DATA
BOILING POINT: 259 F (126 C) DECOMP OSES SPEOIFIC GRAVITY: . o BOILING POINT: 259 F c120 03 FIRE AND EXPLOSION WA>A9n
MELTTND POINT: 10t F C40 C)
SOLURTTY IN WATER SOLUBLE FIRE AND EXPLOSION DATA
SOLVENT SOLUBTILITY SOLUBLE NI ALCOHOL. ACIOS. ACETONE NEGLIGIBLE FIRE HAZARD WHEN EXPOSED TO HEAT OR FLAME. MAY RESULT IN IGNITION. VIOLENT COMBUSTION OR EXPL OSION, DRY CHEMICAL CARBON DIOXIDE. HALON OR WATER SPRAY (1987 EMERGENCY RESP ONSE GUIDEROOK DOT a S8o0. +3. FOR LARGER FIRES. USE WATER SPRAY OR FOG C1987 EMERGENCY RESP ONSE GUIDEBOOK DOT P 5800, 3 GUIDEBOOK. DOT A sao0, + GUIDE PAGK 35) POSSIBLE. EVAQUATE TO A DISTANCE OF 2500 FEET.
OXIDIZER: OXIDIZERS DECOMP OSE. ESP ECIALLY WHEN HEATED. 8 YIELD OXYGEN OR OTHER GASES WHICH WILL INCREASE THE BURNING RATE OF COMBUSTIBLE MATTER. CONTACT WITH EASILY OXIDIZABLE, ORGANIC. OR OTHER COMBUSTIBLE MATERIALS
FIREFIGHTING MEDIA FIREFIGHTING
MOVE CONTAINERS FROM FIRE AREA IF POSSIBLE COOL CONTAINERS EXPOSED TO FLAMES HLIA WATER FROM SIDE UNTIL WELL AFTER FIRE SI OUT, STAY AWAY FROM STORAGE TANK ENDS. FOR MASSIVE FIRE NI STORAGE AREA, USE UNMANNED HOSE'HOLDER OR MONITOR NOZZLES; ELSE WITHDRAW FROM AREA AND LET FIRE BURN C1987 EMERGENCY BESPONSE FLOOD WITH WATER. COOL CONTAINERS APPLY WATER FROM AS GREAT A DISTANCE AS DEPARTMENT OF TRANSPORTATION HAZARP CLASSIFICATION +9CFR172. 101
TRANSPORTATION DATA
:
