SLANTHANUM NITRATE HE
**LANTHANUM NITRATE HEAHM
XXLANTHANUN NITRATE HEXAH
*ELANTHANUN NITRATE HEXAH
MATERIAL SAFETY DATA SHEET
EMERGENCY CONTACTS
AFTER RUSINESS HOURS, HOLIDAYS:
(201) 796-7523

0000 - 185 4

FISHER SCIENTIFIC
CHEMICAL DIVISION
1 REAGENT LANE
FAIR LAWN NJ 07410
C201) 796-7100

DATEI 05/19/85
ACCT:
55080-03
INDEX: 03891320023

GASTON L PILLORI: C201) 796-7100 PO NBR: OTOSTON
CMEMTREC ASSISTANCE Ca002 +29-9300 CAT NO: L10500

THE TNFORMOTION BELOW IS BELIEVED TO BE ACCURATE AND REPRESENTS THE BEST
INF ORMATION CURRENTLY AVAILABL F TO US, HOWEVER, VE MAKE NO WARRANTY OF
MERCHANTABILITY OR ANY OTHER WARRANTY, EXP - RESS OR IMPLIED WITH RESP ECT TO
SUCH INFORMATION AND WE ASSUME NO LIABILITY RESULTING FROM ITS USE. USERS
SHOULD MAKE THEIR OWN INVESTIGATIONS TO DETERMINE THE SUITABILITY OF THE

INFORMATION FOR THEIR PARTICULAR PURPOSES
SUBSTANOE: SELANTHANUM NITBATE HEXAHYDBATET -
J ANTHANUMCIII: NITRATE, HEXOHVOBATE 3 M: 63
NITRIO ACID, ANTHANUM(3* SALT, HEXAHVORATE
LANTHANUM TNTTR TE HEXAHYDRATE L-10; ACCi2+60

SUBSTANCE IDENTIPIC

CAS NUMBER 10277-43-7

TRADE NAMES/SYNONYMS
CHEMICAL FAMILY:
INORGANIC SALT

MOL ECULAR FORMULA LA, N3-09, 6H20
MOL ECULAR WEIGHT: 433. 06

CERCLA RATINGS CSCALE 0-3)1 HEALTH: a FIRE:O SALIAL10U38 PERSISTENCE:3

NFPA RATINGS CSCALE 0-42: HEALTHE2 FIRE=O REACTIVITY: a

COMPONENTS AND CONTOMTNONTS

COMP ONENT: LANTHANUM NITRATE HEXAMYDRATE

PERCENT: 100

OTHER CONTOMINANTS NONE
EXP OSURE LIMITS:

NO OSCUPATIONAL EXPOSURE ITMTTS ESTABLISHEC BY OSHA, ACGIH, OR NIOSH,
DESCRIPTION: ODORLESS COLORLESS TO WHITE DELIQUESCENT TRICLINIC CRYSTALS

PHYSICAL DATA

BOILING POINT: 259 F (126 C DECOMP OSES
SPEOIPIC GRAVITY: 1.0
BOILING POINT: 259 F C126 0>
FIRE AND EXPLOSION HAZABD

MELTING POINT: 104 F C+0 C3

SOLUBILITY IN WATER: SOLUBLE
FIRE AND EXPLOSION DATA

SOLVENT SOLUBILITY: SOLUBLE IN ALCOHOL, ACIDS ACETONE
NEGLIGIBLE FIRE HAZARD WHEN EXPOSED TO HEAT OR FLAME,
MAY RESULT IN IGNITION VIOLENT COMHUSTION OR EXPLOSION
DRY CHEMICAL CARBON DIOXIDE HALON OR WATER SPRAY
(1987 EMERGENCY RESP ONSE GUIDEBOOK, DOT P s80o. $
FOR LARGER FIRES USE WATER SPRAY OR FOG
C198 7 EMERGENCY RESPONSE GUIDEBOOK DOT P 5800.+).
QUIDEBOOK DOT P 5800, * GUIDE PAGE 352
POSSIBLE. EVACUATE TO a DISTANCE OF 2500 FEET,

OXIDIZER: OXIDIZERS DECOM" OSE, ESP ECIALLY WHEN HFATED TO YIELD OXYGEN OR
OTHER GASES WHICH WILL INCREASE THE BURNING RATE OF COMBUSTISL E MATTER.
CONTACT WITH EASIL Y OXIDIZABLE, ORGANIC OR OTHER COMBUSTIBLE MATERIALS

FIREFIGHTING MEDIA:
FIREFIGHTING

MOVE CONTAINERS FROM FIRE AREA IF POSSIBLE COOL CONTAINERS EXP OSED TO FLAMES
WITH WATER FROM SIDE UNTIL WELL AFTER FIRE IS OUT, STAY - WAY FROM STORAG E TANK
ENDS, FOR MASSIVE FIRE IN ST ORAGE AREA, USE UNMANNED HOSE HOLDER OR MONITOR
NOZZLES; ELSE WITHDRAW FR OM AREA AND LET FIRE BURN (1987 EMERGENCY RESP ONSE
FLOOD WITH WATER. COOL CONTAINERS APPLY WATER FROM AS GREAT A DISTANCE AS
DEPARTMENT OF TRONSPORTATION HAZARD CLASSIFIFICATION +9CFR1 72, 101

TBONSP ORTOTION DATe