HANUM NITBATE HT
EELANTHANUM NITRATE HEAHA
KLANTHANUM NITRATE HEXAH
K ANTHANUM NITRATE HEXAH
MATERIAL SAFETY DATA SHEET
EMERGENCY CONTACTS
AFTER BUSINESS HOURS; HOLIDAYS:
C201) 796-7523

00001 1 854

FISHER SCIENTIFIC
CHEMICAL DIVISION
- REAGENT LANE
FAIR LAWN NJ 07410
a 201) 796-7100

DATEI 05/19/89
ACCT: 558080-03
INDEX 03891320023

GASTON a PILLORI: C201) 796-7100 PONBR J018010
CHEMTREO ASSISTANCE: C800) *29-9300 CAT NO L10500

THE INPORMATION BELOW Is BELIEVED 9 BE ACCURATE AND REPRESENTS THE BEST
INFORMATION CURRENTLY AVAILABLE TO - HOWEVER, : MAKE NO WARRANTY OF
MERCHANTABILETT OR ANY OTHER WARRANTY, EXPRESS OR IMPL IED WITH RESP ECT TO
SUCH INFORMA TION, AND ME ASSUME No IABIL) IT RESULTING FROM ITS USE. USERS
SHOULD MAKE THEIR OWN INVESTIGATIONS TC DETERMINE THE SUITABILITY OF - HE

INFORMATION FOR THEIR PARTICULAR PURPOSES.
SURSTANCE: E*LANTHANUM NITRATE HEXAHYDRATE*I
LANTHANU9LIEX) NITRATE HEXAHYORATE - a
NITRIO AOID, ANT THANU >  SAL HEXAMYDRATÉ
LANTHANUM TRINITRATE HEXANYDRATE L-10; ACCIè+60

SUBSTANCE IRENTIFICA - TTOM

CAs-NUMRER 10277-43-1

TRADE NAMES/ SYNONYMS:
CHEMICAL FAMILY
INORGANIO SALT

MOL ECULAR FORMULA LA. N3-09. 6H20
MOL ECuLas WEIGHT: +33. 06

CERCLA RATINGS CSOALE 0-3)1 HEALTHS a FIRE:O REACTIVITV.! PERSISTENCER3

NFPA RATINGS CSCALE C 2 HEALTHs 1a FIRE=O REACTIVITV.C

COMPONENTS AND CONTAMINANTS

COMPONENTI LANTHANUM NITRATE HEXANYDRATE

PERCENT: 100

OTHER CONTOMINANTS NONE
EXP OSURE LIMITS:

NO OCCUPATIONAL EXPOSURE LIMITS ESTABLISHEO BY OSHA, ACGIH, OR NIOSH.
DESCRIPTION ODOBLESS COLORLESS TO WHITE DELIQUESCENT TRIGLINIC CRYSTALS,

PHYSICAL DATA

BOILING POINT: 259 F c126 C) DECOMPOSES
SP ECIFIC GRAVITY: 1.0
BOILING POINT: 259 F c120 C3
FIRE AND EXPL OSION HAZARD

MELTING POINT: 104 F C+0 9

SOLUBILITY IN WATER: SOLUBLE
FIRE AND EXPLOSION DATA

SOLVENT SOLUBILITY SOLUBLE IN ALCOHOL. ACIDS, ACETONE
NEGLIGIBLE FIRE HAZARD WHEN EXPOSED TO HEAT OR FLAME.
MAY RESULT IN IGNITION, VIOLENT COMBUSTION OR EXPL OSION.
DRY CHEMICAL CARRON DIOXIDE. HALON OR WATER SPRAY
C1987 EMERGENCY RESPONSE QUIDEROOK, DOT P S800, :
FOR LARG ER FIRES. USE WATER SPRAY OR FOG
C1987 EMERGENCY RESPONSE GUIDEBOOK. DOT P 5800. 3
QUIDEBODK. DOT E 5800, * GUIDE PAGE 35)
POSSIBLE. EVACUATE TO A DISTANCE OF 2500 FEET.

OXIDIZER: OXIDIZERS DECOMPOSE ESPEGIALLY WHEN HEATED. TO YIELD OXYGEN OR
OTHER GASES WHICH WILL INCREASE THE BURNING RATE OF COMBUSTIBL E MATTER,
CONTACT WITH KASIL v OXIDI: ZABL L ORGANIC OR OTHER COMBUSTIALE MATERIALS

FIREFIGHTING MEDIA
FIREFIGHTING:

MOVE CONTAINERS FROM FIRE AREA IF a OSSIBLE COOL CONTAINERS EXPOSED TO FLAMES
WITH WATER FROM SIDE UNTIL WELL AFTER FIRE SI OUT, STAY AWAY FROM STORAGE TANK
ENDS. FOR MASSIVE FIRE IN STORAGE AREA, USE UNMANNED HOSE HOLDER OR MONITOR
NOZZLI ES: EL SE WITHORAW FROM AREA AND LET FIRE BURN c1987 EMERGENCY RESPONSE
FL OOD WITH WATER. COOL CONTAINERS APPLY WATER FROM AS GREAT A DISTANCE AS

RTOT rION DATA
TF

DEPARTMENT OF TRI

- . TAT a HazaRr

-