X*L ANTHANUM NITBATE HE
*ELANTHANUM NITRATE HEAMM
*ELANTHANUN NITRATE HEXAH
*ELANTHANUN NITRATE HEXAH
MATERIAL SAFETY DOTO SHEET
EMERGENCY CONTACTS
AFTER BUSINESS HOURS; HOLIDAYS:
(201) 796-7523

0000 1 1854

FISHER SCIENTIFIC
CHEMICAL DIVISION
1 REAGENT LANE
FAIR LAWN NJ 07410
C201) 796-7100

DATEL

05/19/89
ACCT: 558080-03
INDEX: 03891320023

GASTON L PILLORIL (201) 796-7100 PO NBR: J018010
CHEMTREC ASSISTANCE Ca00x +29-9300 CAT NO: L10500

THE INFORMATION BELOW IS BELIEVED TO BE ACCURATE AND REPRESENTS THE BEST
INFORMATION CURRENTLY AVAILABLE TO US, HOWEVER, VE MAKE NO WARRANTY OF
MERCHANTABILITY AR ANY OTHER WARRANTY, EXP RESS OR IMPLIED WITH RESP ECT TO
SUCH INFORMATION AND WE ASSUME NO LIABILITY RESULTING FROM ITS usK USERS
SHOULD MAKE THEIR OWN INVESTIGIGATIONS TO DETERMINE THE SUITABILITY of THE

INFORMATION FOR THEIR PARTICULAR PURPOSES
SUBSTANOE: XELANTHANUN NITRATE HEXAHYDBATEX
LANTHANUM(IIE) NITRATE, HEXAHYDRATE 3 3: 6):
NITRIC ACID, LANTHANUMG 3+> SALT, HEXAHYDRATE
LANTHANUM TRINITRATE HEÈXAHVORATE: L-10, ACCI2460

SURSTANCE IDENTIPICAT ION

CAS-NUMBER 10277-43-7

TRADE NAMES/ SYNONYMS
CHEMICAL FAMILY:
INORGANIC SALT

MOL ECULAR FOBMULAI LA, N3-09. 6H20
MOLECULAR WEIGHT: 433. 06

CERCLA RATINGS (SCALE 0-3) HEALTH: FIREE n SALIAL10U38 PERSISTENCE::

NFPA RATINGS CSCALE 0-42: HEALTH=2 FIRE=O REACTIVITY:

COMPONENTS AND CONTAMINANTS

COMPONENT: LANTHANUM NITRATE HEXAMYDRATE

PERCENT: 100

OTHER CONTAMINANTS NONE
EXP OSURE LIMITS:

NO OCOUP ATIONAL EXPOSURE LIMITS ESTABLISHEC BY OSHA, ACGIH, OR NIOSH.
DESCRIPTION: ODORLESS COLORLESS TO WHITE DELIQUESCENT TRICLINIC CRYSTALS

PHYSICAL DATA

ROILING POINT: 259 F (126 C) DECOMP OSES
SPECIPIC GRAVITY: 1.0
BOILING POINT: an F (126 o
FIRK AND EXPLOSION HAZARD:

MELTING POINT: 1.04 F C+0 C3

SOL UBILITY IN WATERI SOLUBLE
FIRE AND EXPLOSION DATA

SOLVENT SOLUBILITY: SOLUBLE NI ALCOHOL, ACIDS, ACETONE
NEGLIGIBLE FIRE HAZARD WHEN EXPOSED TO HSAT OR FLAME,
MAY RESULT IN IGNITION, VIOLENT COMRUSTION OR EXPLOSION,
DRY CHEMICAL, CARBON DIOXIDE. HALON OR WATER SPRAY
C198 7 FMERGENCY RESPONSE GUIDEBOOK, DOT P S800, A
FOR LARGER FIRES. USE WATER SPRAY OR FOG
(1987 EMERGENCY BESPONSE GUIDEEHOOK DOT P 5800, 3
GUIDEBOOK, DOT P 5800, * GUIDE PAGE 352
POSSIBLE. EVACUATE TO a DISTANCE OF 2500 FEET.

OXIDIZER: OXIDIZERS DECOMP OSK. ESP ECIALLY WHEN HEATED. TO YIELD OXYGEN OR
OTHER GASES WHICH WILL INCREASE THE BURNING RATE OF COMBUSTIBLE MATTER,
CONTACT WITH EASIL > OXIDIZABLE, ORGANIC, OR OTHER COMBUSTIBLE MATERIAL a

-

FIREFIGHTING MEDIA
FIREFIGHTING:

MOVE CONTAINERE PROM FIRE AREA IF POSSISLE, COOL CONTAINERS EXPOSED TO FLAMES
WITH WATER FROM SIDE UNTIL WELL AFTER FIRE IS OUT, STAY AWAY FROM STORAGE TANK
ENDS, FOR MASSIVE FIRE IN STORAGE AREA, USE UNMANNED HOSE HOLDER OR MONITOR
NOZZLES, ELSE WITHDRAW FROM AREA AND LET FIRE BURN (1987 EMERGENCY RESPONSE
FLOOD WITH WATER, COOL CONTAINERS APPLY WATER FROM AS GREAT A DISTANCE AS
DEP ARTMENT OF TRONSPORTATION HAZARD CLASSIFICATION +9CFR172 101:

TRANSPORTATION DATA

un