KLANTHANUM NITRATE HT **LANTHANUM NITRATE HEAHN XXLANTHANUM NITRATE HEXAH **LANTHANUM NITRATE HEXAH MATERIAL SAFETY DATA SHEET EMERGENCY CONTACTS: AFTER RUSINESS HOURS: HOLIDAYSI (201) 796-7523
0000 L 185 4
FISHER SCIENTIFIC CHEMICAL DIVISION 1 REAGENT LANE FAIR LAWN NJ 07+10 C201) 796-7100
DATEI 05/19/89 ACCT: 5580-03 INDEXI 03891320023
GASTON L PILLORI C201) 796-7100 PO NBR: OTOSTOr CHEMTREC OSSISTONCE (800) +29-9300 CAT NO: L10500
THE INFORMOTION BELOW IS BELIEVED TO BE ACCURATE AND REPRESENTS THE BEST INF ORMATION CURRENTLY AVAILABL F TO US, HOWEVER, WE MAKE NO WARRANTY OF MERCHANTABILITY OR ANY OTHER WARRANTY, EXP - RESS OR IMPLIED WITH RESP ECT TO SUCH INFORMATION, AND WE ASSUME NO LIABILITY RESULTING FROM ITS USE, USERS SHOULD MAKE THEIR OWN INVESTIGATIONS TO DETERMINE THE SUITABILITY OF THE
INFORMATION FOR THEIR PARTICULAR PURPOSES, SUBSTANCE: **LANTHANUM NITRATE HEXOHYDRATE C L ANTHANUMCIII: NITRATE, HEXOHVORATE : 3: 63 NITRIO ACID. ANTHANUMC3+) SALT, HEXOHYDRATE LANTHANUM IINTTRI TE HEXAHYDRATE L-10: ACC12+60
SURSTONCE IDENTIFI
CAS NUMBER 10277-43-7
TRADE NAMES/SYNONYMSI CHEMICAL FAMILY: INORGANIC SALT
MOL ECULAR FORMULA LA, N3-09. 6H20 MOL ECULAR WEIGHT: +33, 06
CERCLA RATINGS CSCALE 0-3)1 HEALTH= a FIRE:0 FALIAILOUSE PERSISTENCE:3
NFPA RATINGS CSCALE 0-4): HEALTH:2 FIRE=0 REACTIVITY= a
COMPONENTS AND CONTOMINONTS
COMP ONENT: LANTHANUM NITRATE HEXAHYDRATE
PERCENT: 100
OTHER CONTOMINONTS NONE EXP OSURE LIMITS:
NO OCCUPATIONAL EXPOSURE LTMTTS ESTABLISHED BY OSHA, ACGIH, OR NIOSH, DESCRIPTION: ODORLESS, COLORLESS TO WHITE DELIQUESCENT TRICLINIC CRYSTALS
PHYSICAL DATA
BOILING POINT: 259 F (126 c. DECOMP OSES SPEOIFIC GRAVITY: 1.0 BOILING POINT: 259 F (126 o> FIRE AND EXPLOSION HOZORD
MELTING POINT: 104 F C+0 C
SOLURILITY IN WATERI SOLUBLE FIRE AND EXPLOSION DATA
SOLVENT SOLUBILITY: SOLUBLE IN ALCOHOL, ACIDS, ACETONE NEGLIGIBLE FIRE HAZARD WHEN EXPOSED TO HEAT OR FLAME, MAY RESULT IN IGNITION VIOLENT COMBUSTION OR EXPLOSION. DRY CHEMICAL CARBON DIOXIDE, HALON OR WATER SPRAY (1987 EMERGENCY RESP ONSE GUIDEBOOK, DOT P S800, € FOR LARGER FIRES, USE WATER SPRAY OR FOG (198 7 EMERGENCY RESPONSE GUIDEBOOK. DOT P 5800,4). GUIDEBOOK, DOT P 5800, * GUIDE PAGE 35> POSSIBLE. EVACUATE TO A DISTANCE OF 2500 FEET.
OXIDIZER: OXIDIZERS DECOMP OSE, ESP ECIALLY WHEN HEATED TO YIELD OXYGEN OR OTHER GASES WHICH WILL INCREASE THE BURNING RATE or COMBUSTIBL E MATTER, CONTACT WITH EASIL y OXIDIZABLE, ORGANIC, OR OTHER COMBUSTIBLE MATERIALS
FIREFIGHTING MEDIA: FIREFIGHTING
MOVE CONTAINERS FROM FIRE AREA IF POSSIBLE COOL CONTAINERS EXP OSED TO FLAMES WITH WATER FROM SIDE UNTIL WELL AFTER FIRE IS OUT, STAY - WAY FROM STORAG E TANK ENDS, FOR MASSIVE FIRE IN ST ORAGE AREA, USE UNMANNED HOSE HOLDER OR MONITOR NOZZLES; ELSE WITHDRAW FR OM AREA AND LET FIRE BURN (1987 EMERGENCY RESP ONSE FLOOD WITH WATER. COCL CONTAINERS APPLY WATER FROM AS GREAT A DISTANCE AS DEPARTMENT OF TRONSPORTOTION HAZORE CLASSIFICATION 49CFR1 72, 101
TRONSP ORTOTION DATA
