**LANTHANUM NITRATE Hr **LANTHANUM NITRATE HEAHN **LANTHANUM NITRATE HEXAH *LANTHANUM NITRATE HEXAH MATERIAL SAFETY DATA SHEET EMERGENCY CONTACTS: AFTER RUSINESS HOURS; HOLIDAYS (201) 796-7523
FS8IT0000
FISHER SCIENTIFIC CHEMICAL DIVISION - a REOGENT LONK FAIR LAWN 2 07+10 r201 796- 7100
DATE: 05/19/89 RCCT: 558080- a INDEX 03 3891320023
GASTON L. PILLORI: C201) 796-7100 PO NBR: J018010 CHEMTREC OSSISTONCE caoo) +29-9300 CAT NO. L10500
THE INFORMATION BELOW IS BELIEVED TO BE OCCUROTE OND REPRESENTS THE BEST INFORMATION CURRE ENTLY AVAILABLE TO US, HOWEVER, we MAKE NO WARRANTY OF MERCHANTABILITY OR ANY OTHER WARRANTY, EXPRESS OR IMPLIED. WITH RESP ECT TO SUCH INFORMATION, OND 5 ASSUME NO LIABIL - TY RESULTING FROM ITS USE. USERS SHOULD MAKE THEIR OWN INVESTIGATIONS TO DETERMINE THE SUITABILITY OF THE
INFORMATTON FOR THEIR PARTICULAR PURPOSES, SUBSTANCE: ELONTHONUM NITRATE HEXAHYDRATEXX LANTHANUMCIII) NITRATE, HEXAHYDRATE : 3: 6) NITRIO ACID, LANTHANUM(3+) SALT, HEXAHYDRATE, - ANTHANUM TRINITRATE HEXAHYDRATE, L-10; ACC12+60
SUBSTANCE IDENTIFICATION
CAS-NUMBER 10277-43-7
TRADE NOMEE/CVMONVMS, CHEMICAL FAMILY: INORGANIO SOLT
MOLECULOR FORMULA LA. N3-09. 6H20 MOLECULAR WEIGHT: 433.06
CERCLA RATINGS (SCALE 0-3) HEALTH= a FIREE 0 REACTIVITY:0 PERSISTENCE:2
NFPA RATINGS CSCALE 0-4): HEALTH:2 FIRE:0 T EACTIVITY=
COMPONENTS AND CONTAMINANTS
COMPONENT LANTHANUM NITRATE Hi EXAHYDRATE
PERCENTI 100
OTHER SINUNIND NONE RXP OSURE LIMITS:
NO OCCUPATIONAL EXPOSURE LIMITS ESTABLISHED BY OSHA, ACGIH, OR NIOSH, DESCRIPTION: ODORLESS, COLORLESS TO WHITE DELIQUESCENT TRICLINIC CRYSTALS
PHYSICAL DATA
BOILING POINT: 259 F (126 c. DECOMPOSES SPECIFIS CRAVITY 1. o BOILING POINT: 259 F (126 o> FIRE AND EXPLOSION HAZARDI
MELTING POINT: 10+ F C+0 C
SOLURILITY IN WATERI SOLUBLE FIRE AND EXPLOSTON DATA
SOLVENT SOLURTILITY SOLUBLE IN ALCOHOL. ACIDS, OCETONE NEGLIGIBLE FIRE HAZARD WHEN EXPOSED TO HEAT OR FLAME, MAY RESULT IN IGNITION, VIOLENT a COMBUSTION OR EXPLOSION, DRY CHEMICAL. CARBON DIOXIDE, HOLON OR WATER SPRAY (1987 EMERGENCY RESPONSE GUIDEBOOK, DOT P S800, +). FOR LORGER FIRES, USE WATER SPRAY OR FOG (1987 EMERGENCY RESP ONSE MCOBAadine DOT P 5800, +>. GUIDEBOOK, DOT P 5800, * GUIDE PAGE x.5> POSSIBLE. EVACUATE TO A DISTANCE OF 2500 FEET.
OXIDIZER: OXTDTZERS DECOMPOSE. ESP ECIALLY WHFN UZATED TO YIELD OXYGEN OR OTHER CASES WHICH WILL INCREASE THE BURNING RATE OF COMBUSTTBLE MOTTED CONTACT WITH EASILY OXIDIZARLE. ORCANIC. OR OTHER COMBUSTIBLE MATERIALS
N
FIREFIGHTING MEDTO FIREFIGHTING:
MOVE CONTOINERS FROM FIRE AREA IF POSSIBLE, COOL CONTAINERS FXPOSED TO FLAMES WITH WATER FROM SIDE UNTIL WELL AFTER FIRE IS OUT, STAY AUMU FROM STORAGE TONK ENDS, FOR MASSIVE FIRE IN STORAGE AREA, USE UNMANNED HOSE HOL DER OR MONITOR NOZZLES; ELSE WITHDRO FROM AREA AND LET FIRE BURN (1987 EMERGENCY RESPONSE FLOOD WITH WATER. COCL CONTAINERS, APPLY WATER FROM AS GREAT A DISTANCE AS DEPARTMENT OF TRANSPORTATION HAZORE CLASSIFICATION 4-9CFR172, 101:
TRONSPORTOTION DATA
