HANUM NITRATE HT
**LANTHANUM NITRATE HEAM
XLANTHANUM NITRATE HEXAH
* ANTHANUM NITRATE HEXAH
MATERIAL SAFETY DATA SHEET
EMERGENCY CONTACTS:
AFTER BUSINESS HOURS; HOLIDAYS:
C201) 796-7523

00001 1 854

FISHER SCIENTIFIC
CHEMICAL DIVISION
- REAGENT LANE
FAIR LAWN NJ 07410
LA 201) 796-7100

DATE: 05/19/89
ACCT: 558080-03
INDEXI 03891320023

GASTON - PILLORI: C201) 796-7100 PONBR: J018010
CHEMTREC ASSISTANCEI C800) 429-9300 CAT NO. L10500

THE INFORMATION BELOW IS BELIEVED o BE ACCURATE AND REPRESENTS THE BEST
INFORMATION CURRENTLY AVAILABLE TO E HOWEVER, - MAKE NO WARRANTY OF
MERCHANTABILITY OR ANY OTHER WARRANTY, EXPRESS OR IMPL IED WITH RESPI ECT TO
SUCH INFORMA TION, AND - ASSUME NO LABILI IT RESULTING FROM ATS USE. USERS
SHOULD MAKE THEIR OWN INVESTIGATIONS TC DETERMINE THE SUITABILITY OF - HE

INFORMATION FOR THEIR PARTICULAR PURPOSES,
SUBSTANCE: **LANTHANUM NITRATE HEXAHYDRATE
LANTHANUM(ITI) NITRATE HEXAHYDRATE - a
NITRIO ACID, ANT THANU > 4 BAL HEXAHYDRATE
LANTHANUM TRINITRATE HEXAHYDRATE, L-10, ACC12460

SUBSTANCE IDENTIFICA a TTCN

CAS-NUMRER 10277-43-7

TRADE NAMES/ SYNONYMS
CHEMICAL FAMILY:
INORGANIC SALT

MOL ECULAR FORMULA LA, N3-09. 6H20
MOL FCULAH WEIGHT: 433, 06

CERCLA RATINGS (SOALE 0-3) HEALTHE 2 FIREEO REACTIVITY PERSISTENCE:3

NFPA RATINGS CSCALE C : HEALTH= 2. FIRE= REACTIVITYEC

COMPONENTS AND CONTAMINANTS

COMPONENTI LANTHANUM NITRATE HEXAHYDRATE

PERCENT: 100

OTHER CONTOMINTS NONE
EXP OSURE LIMITS:

NO OCCUPATIONAL EXPOSURE LIMITS ESTABLISHED BY OSHA, ACGIH, OR NIOSH,
DESCRIPTION ODORLESS COLORLESS TO WHITE DELIQUESCENT TRICLINIC CRYSTALS,

PHYSICAL DATA

BOILING POINT: 259 F C126 C) DECOMPOSES
SP ECIFIC GRAVITY: 1.0
BOILING POINT 2.5 F C126 0)
FIRE AND CXPL OSION HAZARD

MELTING POINT: 10+ F C40 e

SOLUBILITY IN WATERI SOLUBLE
FIRE AND EXPLOSION DATA

SOLVENT SOLUBILITY: SOLUBLE IN ALCOHOL, ACIDS, ACETONE
NEGLIGIBLE FIRE HAZARD WHEN EXPOSED TO HEAT OR FLAME.
MAY RESULT IN IGNITION, VIOLENT COMBUSTION OR EXPL OSION,
DRY CHEMICAL CARBON DIOXIDE, HALON OR WATER SPRAY
C1987 EMERGENCY RESPONSE GUIDEBOOK, DOT P S800, A
FOR LARG ER FIRES, USE WATER SPRAY OR FOG
C1987 EMERGENCY RESPONSE GUIDEBOOK. DOT P 5800, €
GUIDEBOOK, DOT a 5800, * GUIDE PAGE 352
POSSIBLE. EVACUATE TO A DISTANCE OF 2.500 FEET.

OXIDIZER: OXIDIZERS DECOMPOSE ESPECIALLY WHEN HEATED. TO YIELD OXYGEN OR
OTHER GASES WHICH. WILL INCREASE THE BURNING RATE OF COMBUSTIBL E MATTER,
CONTACT WITH EASIL y OXIDI: ZABL L ORGANIC, OR OTHER COMBUSTIBLE MATERIALS

FIREFIGHTING MEDIA
FIREFIGHTING:

MOVE CONTAINERS FROM FIRE AREA IF a OSSIBLE, COOL CONTAINERS EXPOSED TO FLAMES
WITH WATER FROM SIDE UNTIL WELL AFTER FIRE SI OUT, STAY AWAY FROM STORAGE TANK
ENDS, FOR MASSIVE FIRE IN STORAGE AREA, USE UNMANNED HOSE HOLDER OR MONITOR
NOZZLI ES: EL SE WITHDRAW FROM AREA AND LET FIRE BURN C1987 EMERGENCY RESPONSE
FL OOD WITH VATER, COOL CONTAINERS APPLY WATER FROM AS GREAT a DISTANCE AS

RTAT TION DATA
TE

DEPARTMENT OF TR

a - TAT a HAZARD

-