XELANTHANUM NITBATE HE
**LANTHANUM NITRATE HEAHM
XXLANTHANUN NITRATE HEXAH
XRLANTHANUM NITRATE HEXAH
MATERIAL SAFETY DATA SHEET
EMERGENCY CONTACTS
AFTER BUSINESS HOURS, HOLIDAYSI
(201) 790-7523

F

0000 1 1 854

FISHER SGIENTIFIC
CHEMICAL DIVISION
1 REAGENT LANE
FAIR LAWN 2 2 07410
(201) 796-7100

DATEL 05/19/85
ACCT: 558080-03
INDEXI 03891320023

GASTON J PILLORI: (201) 796-7100 PO NBR: J018010
CHEMTREC ASSISTANGE: C800) 129.9300 CAT NOL L10500

THE INFORMATION BELOW IS BELIEVED TO BE ACCURATE AND REPRESENTS THE BEST
INF ORMATION CURRENTLY AVAILABLE - TO US, HOWEVER, VE MAKE NO WARRANTY OF
MERCHANTABILITY AR ANY OTHER WARRANTY, EXPRESS OR IMPLIED WITH RESPECT TO
SUCH INFORMATION. AND WE ASSUME NO LIABILITY RESULTING FROM ITS USE. USERS
SHOULD MAKE THEIR OWN INVESTIGATIONS TO DETERMINE THE SUITABILITY or THE

INFORMATION FOR THEIR PARTICULAR PURPOSES.
SUBSTANOE: XLANTHANUM NITBATE HEXAHYDRATE**
LANTHANUMC III) NITRATE, HEXAHYDRATE 3 3: 621
NITRIC ACID LANTHANUMG : SALT. HEXAHVDRATE,
LANTHANUM TRINITRATE HEXAHYORATE, Le 10; ACC12460

SUBSTANCE IDENTIFICATION

CAS- NUMB a ER 10277-43-7

TRADE NAMES/ ISWANONAS
CHEMICAL FAMILY:
INORGANIC SALT

MOL FCULOR FOBMULAI LA. N3- 09, 6H20
MOL ECULAR WEIGHT: 433. 06

CERCLA RATINGS CSCALE 0-3)1 HEALTH: e FIREE o REACTIVITYS C PERSISTENCE:3

NFPA RATINGS CSCALE 0-42: HEALTHE a FIREEO REACTIVITYSS

-

-

COMP ONENTS AND CONTAMINANTS

COMP ONENT LANTHANUM NITRATE HEXAHYDRATE

PERCENT 100

OTHER CONTAMINANTS NONE
EXP OSURE LIMITS:

NO OCOUP ATIONAL FXP CSURE LIMITS ESTOBLISHEC BY OSHA, ACGIH, OR NIOSH.
DESCRIPTION: ODORLESS COLORLESS TO WHITE DELIQUESCENT TRICLINIC CRYSTALS

PHYSICAL DATA

BOILING POINT: 259 F (126 C) DECOMP OSES
SPEOIPIC GRAVITY: . D
BOILING POINT: 259 F C126 0>
FIRE AND EXPLOSION was0en

MELTTNO POINT: 104 F C+0 C>

SOLUBILITY IN WATER SOLUBLE
FIRE AND EXPLOSION DATA

SOLVENT SOLUBTILTTY SOLUBLE NI ALCOHOL, ACIDS ACETONE
NEGLIGIBLE FIRE HAZARD WHEN EXPOSED TO HEAT OR FLAME,
MAY RESULT IN IGNITION VIOLENT COMBUSTION OR EXPL OSION.
DRY CHEMICAL CARBON DIOXIDE. HALON OR WATER SPRAY
(1987 EMERGENCY RESP ONSE GUIDEBOOK DOT a 5800. +).
FOR LARGER FIRES. USE WATER SPRAY OR FOG
C1987 EMERGENCY RESP ONSE GUIDEBOOK DOT P 5800. 3
GUIDEBODK, DOT P 5800, * GUIDE PAGE 352
POSSIBLE, EVACUATE TO A DISTANCE OF 2500 FEET.

OXIDIZER: OXIDIZERS DECOMP OSE, ESP ECIALLY WHEN HEATED. 9 YIELD OXYGEN OR
OTHER GASES WHICH WILL INCREASE THE BURNING RATE OF COMBUSTIBLE MATTER.
CONTACT WITH EASILY OXIDIZABLE, ORGANIC OR OTHER COMBUSTIBLE MATERIALS

FIREFIGHTING MEDIA
FIREFIGHTING

MOVE CONTAINERS FROM FIRE AREA IF POSSIBLE COOL CONTAINERS EXPOSED TO FLAMES
HLIN WATER FROM SIDE UNTIL WELL AFTER FIRE SI OUT, STAY AWAY FROM STORAGE TANK
ENDS, FOR MASSIVE FIRE NI STORAGE AREA, USE UNMANNED HOSEHOLDER OR MONITOR
NOZZLES, ELSE WITHDRAW FROM AREA AND LET FIRE BURN (1987 EMERGENCY RESPONSE
FLOOD WITH WATER. COOL CONTAINERS APPLY WATER FROM AS GREAT A DISTANCE As
DEPARTMENT OF TRANSPORTATION HAZARD CLASSIFICATION 49CFR172. 101

TRANSPORTATION DATA

: