KLANTHANUM NITRATE HT
*KLANTHANUM NITRATE HEAMA
LANTHANUM NITRATE HEXAH
*XLANTHANUM NITRATE HEXAH
MATERIAL SAFETY DATA SHEET
EMERGENCY CONTACTS:
AFTER RUSINESS HOURS, HOLIDAYS
C201) 796-7523

0000 - 185 4

FISHER SCIENTIFIC
CHEMICAL DIVISION
1 REAGENT LANE
FAIR LAWN NJ 07410
C2015 796-7100

DATE: 05/19/89
ACCT:
5580RO-03
INDEX: 03891320023

GASTON L PILLORI C201) 796-7100 PO NBR: otostor
CHEMTREC ASSISTANCE c80o) 29-9300 CAT NO: L10500

THE INFORMOTION BELOW IS BELIEVED TO BE ACCURATE AND REPRESENTS THE BEST
INF ORMATION CURRENTLY AVAILABL P TO us, HOWEVER, WE MAKE NO WARRANTY OF
MERCHANTABILITY aR ANY OTHER WARRANTY, EXP - RESS OR IMPLIED WITH RESP ECT TO
SUCH ENFORMATION, AND WE ASSUME NO LIABILITY RESULTING FROM ITS USE. USERS
SHOULD MAKE THEIR OWN INVESTIGATIONS TO DETERMINE THE SUITABILITY OF THE

INFORMATION FOR THEIR PARTICULAR PURPOSES,
SUBSTANCE: *XLANTHANUM NTTRATR HEXAHYDRATE 
- ANTHANUMCIII: NITRATE, HEXAHYDRATE 3 3: 63
NITRIO AOID, ANTHANUMC34) SALT, MEMAHYDRATE
LANTHANUM TNTTRI TE HEXAHYDRATE L-10; ACC12460

SURSTANCE IDENTIPIS

CAS NUMBER 10277-43-7

TRADE NAMES/SYNONYMS
CHEMICAL FAMILY:
INORGANIC SALT

MOL ECULAR FORMULA LA. N3-09, 6H20
MOL ECULAR WEIGHT: 433. 06

CERCLA RATINGS CSCALE 0-331 HEALTHE a FIRE:O FALIALo03s PERSISTENCE:3

NFPA RATINGS CSCALE 0-4): HEALTH:2 FIREEO REACTIVITY: a

COMPONENTS AND CONTOMINONTS

COMP ONENT: LANTHANUM NITRATE HEXAHYDRATE

PERCENT: 100

OTHER CONTOMINANTS NONE
EXP OSURE LIMITS:

NO OCOUPATIONAL EXPOSURE TMTTS ESTABLISHEE BY OSHA, ACGIH, OR NIOSH,
DESORIPTION: ODORLESS, COLORLESS TO WHITE DELIQVESCENT TRICLINTC CRYSTALS

PHYSICAL DATA

BOILING POINT: 259 F C126 o3 DECOMP OSES
SPEOIFIC GRAVITY, 1.0
BOILING POINT: 259 # C126 0)
FIRE AND EXPLOSION HAZORD

MELTING POINT: 104 F C4o os

SOLURILITY TN WATER: SOLUBLE
FIRE AND EXPLOSION DATA

SOLVENT SOLUBILITY: SOLUBLE IN ALCOHOL. ACIDS, ACETONE
NECLICIRLE FIRE HAZARD WHEN EXPOSED TO HEAT OR FLAME.
MAY RESULT IN IGNITION VIOLENT COMBUSTION OR EXPLOSION,
DRY CHEMICAL CARBON DIOXIDE, HALON OR WATER SPRAY
C1987 EMERGENCY RESP ONSE GUIDEBOOK, DOT P S800, $
FOR LARGER FIRES, USE WATER SPRAY OR FOG
C198 7 EMERCENCY RESPONSE GUIDEBOOK, DOT P 5800.4>.
GUIDEBOOK, DOT P 5800, * GUIDE PAGR 35)
POSSIBLE. EVACUATE TO A DISTANCE OF 2500 FEET.

OXIDIZER: OXIDIZERS DECOM" OSE, ESP ECIALLY WHEN HFATED TO YIELD OXYGEN OR
OTHER GASES WHICH WILL INCREASE THE BURNING RATE oF COMBUSTIBL E MATTER,
CONTACT WITH EASIL y OXIDIZABLE, ORGANIC, OR OTHER COMBUSTIBLE MATERIALS

FIREFIGHTING MEDIAL
FIREFIGHTING

MOVE CONTAINERS FROM FIRE AREA IF POSSIBLE coOL CONTAINERS EXP OSED TO FLAMES
WITH WATER FROM SIDE UNTIL WELL AFTER FIRE Is OUT. STAY a WAY FROM STORAG E TANK
ENDS, FOR MASSIVE FIRE IN ST ORAGE AREA, USE UNMANNED HOSE HOLDER OR MONITOR
NOZZLES; ELSE WITHDRAW FR OM AREA AND LET FIRE BURN C1987 EMERGENCY RESP ONSE
FLOOD WITH WATER. cooL CONTAINERS APPLY WATER FROM AS GREAT A DISTANCS As
DEPARTMENT OF TRONSPORTATTON HAZARE CLASSIFICATION 4-9CFR1 72. 101

TRANSP ORTATION DATA