SELANTHANUM NITRATE HE
**LANTHANUN NITRATE HEAMA
E*LANTHANUN NITRATE HEXAH
ELANTHANUM NITRATE HEXAH
MATERIAL SAFETY DATA SHEET
EMERGENCY CONTACTS
AFTER BUSINESS HOURS; HOLIDAYS
C201) 796-7523

FSBIT0000

FISHER SCIENTIFIC
CHEMICAL DIVISION
- d RFOGENT LANK
FAIR LAWN 2 07410
r201 796-1 7100

DATE: 05/19/89
ACCT: 558080- -
INDEX 03 1891320023

GASTON L. PILLORI: (201) 796-7100 PO NBR: J018010
CHEMTREO ASSISTANCE C800) +29-9300 CAT NOI L10500

THE INFORMATION RELOW IS BELIEVED TO BE ACCUBATE AND REPRESENTS THE BEST
INFORMATION CURRE ENTLY AVAILABLE TO US, HOWEVER, ME MAKE NO WARRANTY OF
MERCHANTABILITY OR ANY OTHER WARRANTY, EXPRESS OR IMPLIED. WITH RESP ECT TO
SUCH INFORMATION, AND : ASSUME NC LIABIL à TY RESULTING EROM ITS USE. USERS
SHOULD MAKE THEIR OWN INVESTIGATIONS TO DETERMINE THE SUITABILITY OF THE

TNFOSMATTON FOR THEIR PARTICULAR PURPOSES
SUBSTANCE: XLANTHANLM NITBATE HEXAHYORATERS
LANTHANUMCIII) NITRATE, HEXAHVDRATE 3 :: 6)
NITRIO AOID, LANTHANUMES9) SALT, HEXAHYDRATE
- ANTHANUM TRINTTRATE HEKAHYORATE L-10; ACCièsA0

SUBSTANCE IDENTIFICATION

CAS-NUMBER 10277-43-7

TRADE MAMFR/GVMAMYMS
CHEMICAL FAMILY:
INORGANIO SOLT

MOLECuLAs FORMULA LA. N3-09. 6H20
MOLECULAR WEIGHT: +33.06

CERCLA RATINGS (SOALE 0-3) HEALTH: a FIRE: 0 REACTIVITY:G PERSISTENCES3

NFPA RATINGS CSCALE 0-4): HEALTH=2 FIRE=O - EACTIVITY:

COMPOMENTS AND CONTAMINANTS

COMPONENT LANTHANUM NITRATE Hi EXAHYDRATE

PERCENT: 100

OTHER SINUNINOS NONE
EXP OSURE LIMITS:

NO OOCUPATIONAL EXPOSURE LIMITS ESTABLISHED BY OSHA, ACGIH, OR NIOSH,
DESCRIPTION ODORLESS, COLOaS TO WHITE DELIQUESCENT TRICLINIC CRYSTALS

PHYSICAL DATA

BOILING POINT: 259 F c126 C DECOMPOSES
SPEOIFIC GRAVITY 1. o
BOILING POINT: 259 F C126 03
FIRE AND EXPLOSION HAZARD:

MELTING POINT: 10 F C40 C)

SOLUBILITY IN WATER SOLUBLE
FIRE AND FXPLOSTON DATA

SOLVENT SOLUBTILITY SOLUBLE IN ALCOHOL. ACIDS, ACETONE
NEGLIGIBLE FIRE HAZARD WHEN EXPOSED TO HEAT OR FLAME.
MAY RESULT IN IGNITION, VIOLENT a COMBUSTION OR EXPLOSION,
DRY CHEMICAL. CARRON DIOXIDE. HOLON OR WATER SPRAY
(1987 EMERGENCY RESPONSE GUIDEROOK. DOT P S800, +.
FOR LORGER FIRES. USE WATER SPRAY OR FOG
C1987 EMERGENCY RESP ONSE XOOHa139109 DOT P 5800. +.
GUIDEBOOK DOT P 5800, + GUIDE PAGE 35>
POSSIBLE EVACUATE TO a DISTANCE OF 2500 FEET.

OXIDIZER: OXTDT7FRS DEGOMPOSE. ESP ECIALLY MHEN MEATER TO YIFLD OXYGEN OR
OTHER GASES WHICH WILL INCREASE THE BURNING RATE OF PAMBISTTRLE MATTFD
CONTACT WITH EASILY OXIDIZABLE. ORGANIC. OR OTHER COMBUSTIBLE MATERIALS

-

FIREFIGHTING MEDTA
FIREFIGHTING:

MOVE CONTAINERS FROM FIRE AREA IF POSSIBLE COOL CONTAINERS EXPOSED TO FLAMES
WITH WATER FROM SIDE UNTIL WELL AFTER FIRE IS OUT, STAY AUnu FROM STORAGE TONK
ENDS. FOR MASSIVE FIRE IN STORAGE AREA, USE UNMANNED HOSE HOL DER OR MONITOR
NOZZLES; ELSE WTTMOBAW FROM AREA AND LET FIRE BURN C1987 EMERGENCY RESPONSE
FLOOD WITH WATER. COOL CONTAINERS APPLY WATER FROM AS GREAT A DISTANCE AS
DEPARTMENT OF TRANSPORTATION HAZARP CLASSIFICATION +9CFR172. 101:

TRANSPOBTATION DATA