WELANTHONUM NITROTE HE **LANTHANUM NITRATE HEAHN XXLANTHANUM NITRATE HEXAH XXLANTHANUM NITRATE HEXAH MATERIAL SAFETY DATA SHEET EMERGENCY CONTACTS: AFTER BUSINESS HOURS, HOLIDAYS: (201) 796-7523
F
0000 1 1 854
FISHER SCIENTIFIC CHEMICAL DIVISION 1 REAGENT LANE FAIR LAWN 2 de 07+10 C201) 796-7100
DATEI 05/19/89 ACCT: 558080-03 INDEXI 03891320023
GASTON L PILLORI: C201) 796-7100 PO NBR: J018010 CHEMTREC ASSISTANCE: caoo) 429.930 CAT NOI L10500
THE INFORMATION BELOW IS BELIEVED TO BE ACCURATE AND REPRESENTS THE BEST INF ORMATION CURRENTLY AVAILABLE - TO US, HOWEVER, WE MAKE NO WARRANTY OF MERCHANTABILITY OR ANY OTHER WARRANTY, EXPRESS OR IMPLIED WITH RESPECT TO SUCH INFORMATION, AND WE ASSUME NO LIABILITY RESULTING FROM ITS USE, USERS SHOULD MAKE THEIR OWN INVESTIGATIONS TO DETERMINE THE SUITABILITY OF THE
INFORMATION FOR THEIR PARTICULAR PURPOSES, SUBSTANCE: EELANTHONUM NITRATE HEXAHYDRATER LANTHANUMC III) NITRATE, HEXAHYDRATE : 3: 6) NITRIO ACID LANTHANUMO : SALT, HEXAHYDRATE, LANTHANUM TRINITRATE HEXAHYDRATE, L- 10; ACC12460
SUBSTANCE IDENTIFICATION
CAS- NUMB a ER 10277-43-7
TRADE NAMES/ 'SHANONAS. CHEMICAL FAMILY: INORGANIO SALT
MOL FCULAR FORMULAI LA, N3- 09, 6H20 MOL ECULAR WEIGHT: +33. 06
CERCLA RATINGS CSOALE 0-3)1 HEALTH: et FIRE: o REACTIVITY: D PERSISTENCE:3
NFPA RATINGS CSCALE 0-+): HEALTH: a FIRE=0 REACTIVITY:0
-
-
COMP ONENTS AND CONTAMINANTS
COMP ONENT LANTHANUM NITRATE HEXAHYDRATE
PERCENTI 100
OTHER CONTAMINANTSI NONE EXP OSURE LIMITS:
NO OCOUP ATIONAL EXP OSURE LIMITS ESTARLISHEC BY OSHA, ACGIH, OR NIOSH, DESCRIPTION: ODORLESS. COLORLESS TO WHITE DELIQUESCENT TRICLINIC CRYSTALS
PHYSICAL DATA
BOILING POINT: 259 F (126 c> DECOMP OSES SPEOIFIC GRAVITY: - o BOILING POINT: 259 F C126 o> FIRE AND EXPLOSION unzoen
MELTING POINT: 104 F C+0 c>
SOLURILITY IN WATER SOLUBLE FIRE AND EXPLOSION DATA
SOLVENT SOLURTILITY SOLUBLE NI ALCOHOL, OCIDS. ACETONE NEGLIGIBLE FIRE HAZARD WHEN EXPOSED TO HEAT OR FLAME, MAY RESULT IN IGNITION, VIOLENT COMBUSTION OR EXPL OSION, DRY CHEMICAL CARBON DIOXIDE, HALON OR WATER SPRAY (1987 EMERGENCY RESP ONSE GUIDEBOOK, DOT a S800, +). FOR LARGER FIRES, USE WATER SPRAY OR FOG C1987 EMERGENCY RESPI ONSE GUIDEBOOK. DOT P 5800, € GUIDEBOOK, DOT P 5800, i GUIDE PAGE 35) POSSIBLE, EVACUATE TO A DISTANCE OF 2500 FEET.
OXIDIZER: OXIDIZERS DECOMP OSE. ESP ECIALLY WHEN HEATED, 0 YIELD OXYGEN OR OTHER GASES WHICH WILL INCREASE THE BURNING RATE OF COMBUSTIBLE MATTER. CONTACT WITH EASILY OXIDIZABLE, ORGANIC, OR OTHER COMBUSTIBLE MATERIALS
FIREFIGHTING MEDIA FIREFIGHTING:
MOVE CONTAINERS FROM FIRE AREA IF POSSIBLE COOL CONTAINERS EXPOSED TO FLAMES HIIA WATER FROM SIDE UNTIL WELL AFTER FIRE SI OUT, STAY AWAY FROM STORAGE TANK ENDS, FOR MASSIVE FIRE NI STORAGE AREA, USE UNMANNED HOSEHOLDER OR MONITOR NOZZLES; ELSE WITHDRAW FROM AREA AND LET FIRE BURN (1987 EMERGENCY RESPONSE FLOOD WITH WATER. COOL CONTAINERS APPLY WATER FROM AS GREAT A DISTANCE AS DEPARTMENT OF TRANSPORTATION HAZORE CLASSIFICATION 4-9CFR172, 101
TRANSPORTATION DATA
ut
