KXLANTHANUM NITRATE HT
*KLANTHANUM NITRATE HEAHR
*KLANTHANUM NITRATE HEXAH
*LANTHANUM NITRATE HEXAH
MATERIAL SAFETY DATA SHEET
EMERGENCY CONTACTS:
AFTER RUSINESS HOURS: HOLIDAYS
(201) 796-7523

P98110000

FISHER SCIENTIFIC
CHEMICAL DIVISION
- - REOGENT LONK
FAIR LAWN 3 07+10
r201) 796- 7100

DATE: 05/19/89
ACCT: 558080- a
INDEX 02 3891320023

GASTON L. PILLORI: (201) 796-7100 PO NBR: J018010
CHEMTREC ASSISTANCE: C800) 429-9300 CAT NO. L10500

THE INFORMATION BELOW IS BELIEVED TO BE OCCURATE OND REPRESENTS THE BEST
INFORMATION CURRE ENTLY AVAILABLE TO US, HOWEVER, VE MAKE NO WARRANTY OF
MERCHANTABILITY OR ANY OTHER WARRANTY, EXPRESS OR IMPLIED. WITH RESP ECT TO
SUCH INFORMATION, OND 5 ASSUME NO LIABIL - TY RESULTING FROM ITS USE, USERS
SHOULD MAKE THEIR OWN INVESTIGIGATIONS TO DETERIIN THE SUITABILITY OF THE

INFORMMTION FOR THEIR PARTICULAR PURPOSES,
SUBSTANCE: KLONTHANUM NITRATE HEXAHYDRATEXX
LANTHANUMCIII) NITRATE, HEXAHYDRATE 5 3: 6)
NITRIO ACID, LANTHANUMC3+) SALT, HEXAHYDRATE,
I ANTHANUM TRINITRATE HEXAHYDRATE: L-10; ACC12+60

SUBSTANCE IDENTIFICATION

CAS-NUMBER 10277-43-7

TRADE NAMES/CVNONYMS
CHEMICAL FAMILY:
INORGANIO SALT

MOLECUL.R FORMULA LA. N3-09. 6H20
MCLECULLR WEIGHT: 433.06

CERCLA RATINGS (SOALE 0-3)1 HEALTH= 2 FIRE: 0 REACTIVITY:D PERSISTENCE:

NFPA RATINGS CSCALE 0-4): HEALTH:2 FIRE:O Y EAATIIITY:

COMPONENTS AND CONTAMINANTS

COMPONENT LANTHANUM NITRATE Hi EXAHYDRATE

PERCENT: 100

OTHER SANUNINOU NONE
EXP OSURE LIMITS:

NO OCCUPATIONAL EXPOSURE LIMITS ESTABLISHED BY OSHA, ACGIH, OR NIOSH,
DESCRIPTION ODORLESS, COLORS TO WHITE DELIQUESCENT TRICLNICC CRYSTALS

PHYSICAL DATA

BOILING POINT: 259 F (126 C DECOMPOSES
SPEOIFIC GRAVITY 1. o
BOILING POINTI 259 F (126 o>
FIRE AND EXPLOSION HAZARD:

MELTING POINT: 10% F C+0 C

SOLURILITY IN WATERI SOLUBLE
FIRE AND EXPLOSTON DATA

SOLVENT SOLURTILITY: SOLUBLE IN ALCOHOL. ACIDS, ACKTONF
NEGLIGIBLE FIRE HAZARD WHEN EXPOSEC TO HEAT OR FLAME,
MAY RESULT IN IGNITION, VIOLENT a COMBUSTION OR EXPLOSION,
DRY CHEMICAL. CARBON DIOXIDE, HOLON OR WATER SPRAY
(1987 EMERGENCY RESPONSE GUIDEBOOK, DOT P s800, +).
FOR LORGER FIRES, USE WATER SPRAY OR FOG
C1987 EMERGENCY RESP ONSE 100892 DOT P 5800. +).
GUIDEBOOK, DOT P 5800, * GUIDE PAGE 357
POSSIBLE. EVACUATE TO A DISTANCE OF 2500 FEET.

OXIDIZER: OXTOTZERS DECOMPOSE. ESP ECIALLY WHEN WZOTED TO YIELD OXYGEN OR
OTHER GAsKS WHIOH WILL INCREASE THE BURNING RATE OF COMBUISTTBI MATTER
CONTACT WITH EASILY OXIDIZARLE. ORGANIC. OR OTHER COMBUSTIBLE MATERIALS

2

FIREFIGHTING MEDIO:
FIREFIGHTING:

MOVE CONTAINERS FROM FIRE AREA IF POSSIBLE, COOL CONTAINERS EXPOSEC TO FLAMES
WITH WATER FROM SIDE UNTIL WELL AFTER FIRE IS OUT, STAY AURU FROM STORAGE TONK
ENDS, FOR MASSIVE FIRE IN STORAGE AREA, USE UNMANNED HOSE HOL DER OR MONITOR
NOZZLES; ELSE WTTHORO: FROM AREA AND LET FIRE BURN (1987 EMERGENCY RESPONSE
FLOOD WITH WATER. COOL CONTAINERS, APPLY WATER FROM AS GREAT A DISTANCE AS
DEPARTMENT OF TRANSPORTATION HAZARD CLASSIFICATION 49CFR172, 101:

TRANSPORTATION DATA