ANUM NITRATE HT
**LANTHANUM NITRATE HEAaA
KLANTHANUM NITRATE HEXAH
* ANTHANUM NITRATE HEXAH
MATERIAL SAFETY DATA SHEET
EMERGENCY CONTACTS:
AFTER BUSINESS HOURS; HOLIDAYS:
C201) 796-7523

00001 1 854

FISHER SCIENTIFIC
CHEMICAL DIVISION
- REAGENT LANE
FAIR LAWN NJ 07'10
3 201) 796-7100

DATE: 05/19/89
ACCT: 558080-03
INDEX: 03891320023

GASTON - PILLORI: C201) 796-7100 PONBR: J018010
CHEMTREC ASSISTANCE: C800) 429-9305 CAT NO: L10500

THE INFORMATION BELOW IS BELIEVED 9 BE ACCURATE AND REPRESENTS THE BEST
INFORMATION CURRENTLY AVAILABLE TO  HOWEVER, 4 MAKE NO WARRANTY OF
MERCHANTABILITY aR ANY OTHER WARRANTY, EXPRESS OR IMPL IED WITH RESP ECT TO
SUCH INFORMA TION, AND - ASSUME NG TAIL IT RESULTING FROM ITS USE. USERS
SHOULD MAKE THEIR OWN INVESTIGIGATIONS TC DETERMINE THE SUITABILITY os - HE

INFORMATION FOR THEIR PARTICULAR PURPOSES,
SUBSTANCE: *XLANTHANUM NITRATE HEXAHYDRATE*T
LANTHANUMCIIT) NITRATE HEXAHYDRATE - a
NITRIO AOID, ANT THANU >  BAL HEXAHYDRATE
LANTHANUM TRINITRATE HEXARYDRATE, L-10; ACCI2460

SUBSTANCE IDENTIFICA - TTOR

CAS-NUMRES 10277-43-7

TRADE NAMES/ SYNONYMS,
CHEMICAL FAMILY:
INORGANIO SALT

MOL ECULAR FORMULA: LA. N3-09. 6H20
MOL ECULAR WEIGHT: 433. 06

CERCLA RATINGS CSOALE 0-331 HEALTHE a FIREEO REACTIVETYEE PERSISTENCE:3

NFPA RATINGS CSCALE a 2 HEALTHE e FIREEO REACTIVITYED

COMPONENTS AND CONTAMINANTS

COMPONENT: LANTHANUM NITRATE HEXAHYDRATE

PERCENT: 100

OTHER CONTOMINANTS NONE
EXP OSURE LIMITS:

NO OCOUPATIONAL EXPOSURE LIMITS ESTABLISHED BY OSHA, ACGIH, OR NIOSH.
DESCRIPTION ODORLESS COLORLESS TO WHITE DELIQUESCENT TRICLINIC CRYSTALS,

PHYSICAL DATA

BOILING POINT: 259 F C126 e) DECOMPOSES
SP FOIPIC GRAVITY, 1.0
BOILING POINT: 2 # c1a6 0)
FIRE AND PL OSION HAZARD:

MELTING POINT: 104 F C40 9

SOLUBILITY IN WATER: SOLUBLE
FIRE AND EXPLOSION DATA

SOLVENT SOLUBILITY: SOLUBLE IN ALCOHOL. ACIDS, ACETONE
NEGLIGIBLE FIRE HAZARD WHEN EXPOSED TO HEAT OR FLAME.
MAY RESULT IN IGNITION, VIOLENT COMBUSTION OR EXPL OSION.
DRY CHEMICAL CARBON DIOXIDE, HALON OR WATER SPRAY
C1987 EMERGENCY RESPONSE GUIDEBOOK. DOT P S800. A
FOR LARG ER FIRES, USE WATER SPRAY OR FOG
C1987 EMERGENCY RESPONSE GUIDEBOOK. DOT P 5800. $
GUIDEBOOK, DOT a 5800, * GUIDE PAGE 35)
POSSIBLE. EVACUATE TO A DISTANCE OF 2500 FEET.

OXIDIZER: OXIDIZERS DECOMPOSE, ESPECIALLY WHEN HEATED, TO YIELD OXYGEN OR
OTHER GASES WHICH WILL INCREASE THE BURNING RATE OF COMBUSTIEL E MATTER.
CONTACT WITH EASIL y OXIDI: ZABL - ORGANIC OR OTHER COMBUSTIRLE MATERIALS

FIREFIGHTING MEDIA
FIREFIGHTING:

MOVE CONTAINERS FROM FIRE AREA IF a OSSIBLE, COOL CONTAINERS EXPOSED TO FLAMES
WITH WATER FROM SIDE UNTIL WELL AFTER FIRE SI OUT, STAY AWAY FROM STORAGE TANK
ENDS. FOR MASSIVE FIRE IN STORAGE AREA, USE UNMANNED HOSE HOLDER OR MONITOR
NOZZLI ES, EL SE WITHDRAW FROM AREA AND LET FIRE BURN C1987 EMERGENCY RESPONSE
FL 0OD WITH WATER. cooL CONTAINERS APPLY WATER FROM AS GREAT A DISTANCE As

RTA7 TION DATA
P

DEPARTMENT OF TRI

- . TAT a HAZARE

-