**LANTHANUM NITRATE HE **LANTHANUM NITRATE HEAHM **LANTHANUM NITRATE HEXAH *LANTHANUM NITRATE HEXAH MATERIAL SAFETY DATA SHEET EMERGENCY CONTACTS: AFTER BUSINESS HOURS: HOLIDAYS (201) 796-7523
PS8110000
FISHER SCIENTIFIC CHEMICAL DIVISION - - REAGENT LANE FAIR LAWN 2 07+10 r201 796- 7100
DATE: 05/19/89 ACCT: 558080- a INDEX 03 3891320023
GASTON L. PILLORI: C201) 796-7100 PO NBR: J018010 CHEMTREC ASSISTANCE: C800) +29-9300 CAT NO. L10500
THE INFORMATION BELOW IS BELIEVED TO BE ACCURATE OND REPRESENTS THE BEST INFORMATION CURRE ENTLY AVAILABLE TO US, HOWEVER, WE MAKE NO WARRANTY OF MERCHANTABILITY OR ANY OTHER WARRANTY, EXPRESS OR IMPLIED. WITH RESP ECT TO SUCH INFORMATION. OND , ASSUME NO LIABIL . TY RESULTING FROM ITS USE, USERS SHOULD MAKE THEIR OWN INVESTIGATIONS TO DETERMINE THE SUITABILITY OF THE
TNEORMATTON FOR THEIR PARTICULAR PURPOSES, SUBSTANCE: *LANTHANUM NITRATR HEXAHYDRATE** LANTHANUMCIII) NITRATE, HEXAHYDRATE 3 3: 6) NITRIO ACID, LANTHANUMC3+3 SALT, HEXAHYDRATE, J ANTHANUM TRINITRATE HEXAHYDRATE, L-10; ACC12460
SUBSTANCE IDENTIFIIAAION
CAS-NUMBER 10277-43-7
TRADE NAMEC/CVNONVMS CHEMICAL FAMILY: INORGANIC SALT
MOLECULAR FORMULA LA. N3-09. 6H20 MOLECuLLR WEIGHT: 433.06
CERCLA RATINGS (SCALE 0-3) HEALTH:: 2 FIREE 0 REACTIVITY:O PERSISTENCE:2
NFPA RATINGS CSCALE 0-+): HEALTH=2 FIREEO Y EEATIVITYE
COMPONENTS AND CONTAMINANTS
COMPONENT LANTHANUM NITRATE Hi EXAHYDRATE
PERCENT: 100
OTHER SANUNIWOS NONE EXP OSURE LIMITS:
NO OCCUPATIONAL EXPOSURE LIMITS ESTABLISHEC BY OSHA, ACCIH, OR NIOSH, DESCRIPTION ODORLESS, COLORLESS TO WHITE DELIQUESCENT TRICLINIC CRYSTALS
PHYSICAL DATA
BOILING POINT: 259 F (126 C DECOMPOSES SPEOIFIC CRAVITY 1. D BOILING POINT: 259 F (126 o) FIRE AND EXPLOSION HAZARD:
MELTING POINT: 104 F C+0 C
SOLURILITY IN WATERI SOLUBLE FIRE AND EXPLOSTON DATA
SOLVENT SOLURTLTTY: SOLUBLE IN ALCOHOL. ACIDS, ACKTONE NEGLIGIBLE FIRE HAZARD WHEN EXPOSED TO HEAT OR FLAME, MAY RESULT IN IGNITION, VIOLENT a COMBUSTION OR EXPLOSION, DRY CHEMICAL. CARBON DIOXIDE, HALON OR WATER SPRAY (1987 EMERGENCY RESPONSE GUIDEBOOK, DOT P S800, +). FOR LARGER FIRES, USE WATER SPRAY OR FOG C1987 EMERGENCY RESP ONSE 200Esurn DOT P 5800, +). GUIDEBOOK. DOT P 5800, * GUIDE PAGE 355 POSSIBLE. EVACUATE TO A DISTANCE OF 2500 FEET.
OXIDIZER: OXTDTZERSS DECOMPOSE. ESP ECIALLY WHEN WZATEN TO YIELD OXYGEN OR OTHER GASES WHICH WILL INCREASE THE BURNING RATE OF COMBLSTTBLE MATTER CONTACT WITH EASILY OXIDI2ARLE. ORCANIC. OR OTHER COMBUSTIBLE MATERIALS
N
FIREFIGHTING MEDTO: FIREFIGHTING:
MOVE CONTAINERS FROM FIRE AREA IF POSSIBLE, COOL CONTAINERS EXPOSED TO FLAMES WITH WATER FROM SIDE UNTIL WELL AFTER FIRE IS OUT. STAY AUMU FROM STORAGE TANK ENDS, FOR MASSIVE FIRE IN STORAGE AREA, USE UNMANNED HOSE HOL DER OR MONITOR NOZZLES; ELSE WTTHDRO FROM AREA AND LET FIRE BURN (1987 EMERGENCY RESPONSE FLOOD WITH WATER. COOL CONTAINERS. APPLY WATER FROM AS GREAT A DISTANCE AS DEPARTMENT OF TRANSPORTATION HAZARD CLASSIFICAAION 49CFR172, 101:
TRANSPORTATION DATA
