**L ANTHANUM NITRATE HE **LANTHANUM NITRATE HEAHN **LANTHANUM NITRATE HEXAH **LANTHANUM NITRATE HEXAH MATERIAL SAFETY DOTO SHEET EMERGENCY CONTACTS: AFTER BUSINESS HOURS; HOLIDAYS: (201) 796-7523
0000 1 1854
FISHER SCIENTIFIC CHEMICAL DIVISION 1 REAGENT LANE FAIR LAWN NJ 07+10 C201) 796-7100
DATE:
05/19/89 ACCT: 558080-03 INDEX: 03891320023
GASTON L PILLORII (201) 796-7100 PO NBR: J018010 CHEMTREC ASSISTANCE: capo> +29-9300 CAT NO. L10500
THE INFORMATION BELOW IS BELIEVED TO BE ACCURATE AND REPRESENTS THE BEST INFORMATION CURRENTLY AVAILABLE TO US, HOWEVER, WE MAKE NO WARRANTY OF MERCHANTABILITY OR ANY OTHER WARRANTY, EXP RESS OR IMPLIED. WITH RESP ECT TO SUCH INFORMATION, AND WE ASSUME NO LIABILITY RESULTING FROM ITS usse USERS SHOULD MAKE THEIR OWN INVESTIGATIONS TO DETERMINE THE SUITABILITY OF THE
INFORMATION FOR THEIR PARTICULAR PURPOSES, SUBSTANCE: XXLANTHANUM NITRATE HEXAHYDRATEX LANTHANUM(III) NITRATE, HEXAHYDRATE 3 3: 6): NITRIO ACID, LANTHANUMC 3+) SALT, HEXAHYDRATE, LANTHANUM TRINITRATE HEXAHYDRATE; L-10; ACC12460
SURSTANCE IDENTIFICAT ION
CAS-NUMBER 10277-43-7
TRADE NAMES/ SYNONYMS: CHEMICAL FAMILY: INORGANIC SALT
MOL ECULAR FORMULA: LA. N3-09. 6H20 MCLECULAR WEIGHT: +33, 06
CERCLA RATINGS (SOALE 0-x)1 HEALTHER FIREE - FALINIaa PERSISTENCE:3
NFPA RATINGS CSCALE 0-+): HEALTH=2 FIREEO REACTIVITY:
COMPONENTS AND CONTAMINANTS
COMPONENT: LANTHANUM NITRATE HEXAHYDRATE
PERCENT: 100
OTHER CONTAMINANTS: NONE EXP OSURE LIMITS:
NO OCOUP ATIONAL EXPOSURE LIMITS ESTABLISHEC BY OSHA, ACGIH, OR NIOSH, DESCRIPTION: ODORLESS, COLORLESS TO WHITE DELIQUESCENT TRICLINTC CRYSTALS
PHYSICAL DATA
BOILING POINT: 259 F (126 C) DECOMP OSES SPECIFIO GRAVITY: 1.0 BOILING POINT: ase F (126 o> FIRE AND EXPLOSION HAZARD:
MELTING POINT: 10+ F C+0 CI
SOL UBILITY IN WATER: SOLUBLE FIRE AND EXPLOSION DATA
SOLVENT SOLUBILITY: SOLUBLE NI ALCOHOL. ACIDS, ACETONE NEGLIGIBLE FIRE HAZARD WHEN EXPOSED TO HEAT OR FLAME, MAY RESULT IN IGNITION, VIOLENT COMBUSTION OR EXPLOSION, DRY CHEMICAL, CARBON DIOXIDE, HALON OR WATER SPRAY (198 7 EMERGENGY BESPONSE GUIDEBOOK, DOT P s800. A FOR LARGER FIRES. USE WATER SPRAY OR FOG C1987 EMERGENCY RESPONSE GUIDEEROOK DOT P 5800. € GUIDEBOOK, DOT P sao0. + GUIDE PAGE 353 POSSIBLE. EVACUATE TO A DISTANCE OF 2500 FEET,
OXIDIZER: OXIDIZERS DECOMP OSE. ESP ECIALLY WHEN HEATED. TO YIELD OXYGEN OR OTHER GASES WHICH WILL INCREASE THE BURNING RATE OF COMBUSTIBLE MATTER, CONTACT WITH EASIL > OXIDIZIZABLE. ORGANIC, OR OTHER COMBUSTIBLE MATERIAL in
-
FIREFIGHTING MEDIA FIREFIGHTING:
MOVE CONTAINERS FROM FIRE AREA IF POSSIBLE, COOL CONTAINERS EXPOSED TO FLAMES WITH WATER FROM SIDE UNTIL WELL AFTER FIRE IS OUT, STAY AWAY FROM STORAGE TANK ENDS, FOR MASSIVE FIRE IN STORAGE AREA, USE UNMANNED HOSE HOLDER OR MONITOR NOZZLES; ELSE WITHDRAW FROM AREA AND LET FIRE BURN (1987 EMERGENCY RESPONSE FLOOD WITH WATER. COOL CONTAINERS. APPLY WATER FROM AS GREAT A DISTANCE AS DEP ARTMENT OF TRONSPORTATION HAZARD CLASSIFICATION 49CFR172, 101:
TRANSPORTATION DATA
un
