CKLANTHANUM NITRATE HF *KLANTHANUM NITRATE HEAHR *XLANTHANUM NITRATE HEXAH KXLANTHANUM NITRATE HEXAH MATERIAL SAFETY DATA SHEET EMERGENCY CONTACTS: AFTER RUSINESS HOURS HOLIDAYS: (201) 796-7523
0000 - 185 4
FISHER SCIENTIFIC CHEMICAL DIVISION 1 REAGENT LANE FAIR LAWN NJ 07+10 C201) 796-7100
DATE: 05/19/89 ACCT: 558OR0-03 INDEXI 03891320022
GASTON L. PILLORI: C201) 796-7100 PO NBR: oTo8tor CHEMTREC ASSISTANCE C800) +29-9300 CAT NO: L10500
THE INFORMMTIION BELOW IS BELIEVED TO BE ACCURATE AND REPRESENTS THE BEST INF ORMATION CURRENTLY AVAILABL E TO US, HOWEVER, WE MAKE NO WARRANTY OF MERCHANTABILITY OR ANY OTHER WARRANTY, EXP a RESS OR IMPLIED WITH RESP ECT TO SUCH INFORMATION, AND WE ASSUME NO LIABILITY RESULTING FROM ITS USE, USERS SHOULD MAKE THEIR OWN INVESTIGATIONS TO DETERMINE THE SUITABILITY OF THE
INFORMATION FOR THEIR PARTICULAR PURPOSES, SUBSTANCE: EXLANTHANUM NITRATE HEXAHYDDRAEE * I ANTHANUMCIII: NITRATE, HEXAHYDRATE 5 3: 61 NITRIO ACID, ANTHANUMC3+ SALT, HEXAHYDRATE LANTHANUM INTTRI TE HEXAHYDRATE L-10; ACC12+60
SURSTNCE IDENTTII
CAS: NUMBER 10277-43-7
TRADE NAMES/SYNONYMS: CHEMICAL FAMILY: INORGANIO SALT
MOL ECULAR FORMULA LA. N3-09, 6H20 MOL ECULAR WEIGHT: +33. 06
CERCLA RATINGS CSCALE 0-3): HEALTH= 2 FIRE:O -AA10228 PERSISTENCE:3
NFPA RATINGS CSCALE 0-4): HEALTH=2 FIRE=0 REACTIVITY: n
COMPONENTS AND CONTOMINANTS
COMP ONENT: LANTHANUM NITRATE HEXAHYDRATE
PERCENT: 100
OTHER CONTOMINONTS NONE EXP OSURE LIMITS:
NO OCCUPATIONAL EXPOSURE IMMTT ESTABLISHED BY OSHA, ACGIH, OR NIOSH, DESCRIPTION: ODORLESS, COLORLESS TO WHITE DELIQUESCENT TRICLNICC CRYSTALS
PHYSICAL DATA
BOILING POINT: 259 F (126 C DECOMP OSES SPEOIFIO GRAVITY: 1.0 BOILING POINTI 259 F (126 o> FIRE AND EXPLOSION HOZORD
MELTING POINT: 10+ F C+0 C
SOLURILITY IN WATERI SOLUBLE FIRE AND EXPLOSION DATA
SOLVENT SOLUBILITY: SOLUBLE NN ALCOHOL, ACIDS, ACETONE NEGLIGIBLE FIRE HAZARD WHEN EXPOSED TO HEAT OR FLAME, MAY RESULT IN IGNITION VIOLENT COMBUSTION OR EXPLOSION. DRY CHEMICAL CARBON DIOXIDE, HALON OR WATER SPRAY (1987 EMERGENCY RESP ONSE GUIDEBOOK, DOT P s800, C FOR LARGER FIRES, USE WATER SPRAY OR FOG C198 7 EMERGENCY RESPONSE GUIDEBOOK. DOT P 5800,4). GUIDEBOOK, DOT P 5800, * GUIDE PAGE 35) POSSIBLE, EVACUATE TO A DISTANCE OF 2500 FEET.
OXIDIZER: OXIDIZERS DECOMP OSE, ESP ECIALLY WHEN HEOTED TO YIELD OXYGEN OR OTHER GASES WHICH WILL INCREASE THE BURNING RATE OF COMBUSTIBL E MATTER, CONTACT WITH EASIL y OXIDIZABLE, ORGANIC, OR OTHER COMBUSTIBLE MATERIALS
FIREFIGHTING MEDIA: FIREFIGHTING
MOVE CONTAINERS FROM FIRE AREA IF POSSIBLE COOL CONTAINERS EXP OSED TO FLAMES WITH WATER FROM SIDE UNTIL WELL AFTER FIRE IS OUT, STAY n WAY FROM STORAG E TANK ENDS, FOR MASSIVE FIRE IN ST ORAGE AREA, USE UNMANNED HOSE HOLDER OR MONITOR NOZZLES; ELSE WITHDRAW FR OM AREA AND LET FIRE BURN (1987 EMERGENCY RESP ONSE FLOOD WITH VATER. COOL CONTAINERS APPLY WATER FROM AS GREAT A DISTANCE AS DEPARTMENT OF TRONSPORTTATION HAZARD CLASSIFIFICATION 49CFR1 72, 101
TRANSP ORTATION DATA
