**I ANTHANUM NITRATE HT **LANTHANUM NITRATE HEAM **LANTHANUM NITRATE HEXAH **LANTHANUM NITRATE HEXAH MATERIAL SAFETY DOTO SHEET EMERGENCY CONTACTS AFTER BUSINESS HOURS: HOLIDAYSI C201) 796-7523
0000 1 1854
FISHER SCIENTIFIC CHEMICAL DIVISION 1 REAGENT LANF FAIR LAWN NJ 07410 C201) 796-7100
DATEI
05/19/89 ACCT: 558080-03 INDEXI 03891320023
GASTON L PILLORI C201) 796-7100 PO NBR: J018010 CHEMTREC ASSISTANCEI Caoo 429-9300 CAT NO: Licsoc
THE INFORMATION BELOW IS BELIEVED TO BE ACCURATE AND REPRESENTS THE BEST INFORMATION CURRENTLY AVAILABLE TO US, HOWEVER, WE MAKE NO WARRANTY OF MERCHANTABILITY an ANY OTHER WARRANTY, EXP RESS OR IMPLIED WITH RESP ECT TO SUCH INFORMATION, AND WE ASSUME NO LIABILITY RESULTING FROM HTS US USERS SHOULD MAKE THEIR OWN INVESTIGIGATIONS TO DETERMINE THE SUITABILITY OF THE
INFORMATION FOR THEIR PARTICULAR PURPOSES, SUBSTANCE: XXLANTHANUM NITRATE HEXAHYDRATE LANTHANUM(III) NITRATE, HEXAHYDRATE : 3: 6): NITRIO ACID, LANTHANUMG 3+) SALT, HEXAHYDRATE, LANTHANUM TRINITRATE HEXAHYDRATE, L-10; ACC12460
SUBSTANCE IDENTIFICAT: ION
CAS-NUMBER 10277-43-7
TRADE NAMES/ SYNONYMS CHEMICAL FAMILY: INORGANIC SALT
MOL ECULAR FORMULA: LA, N3-09. 6H20 MCLECULAR WEIGHT: 433. 06
CERCLA RATINGS (SCALE 0-2 HEALTH=2 FIREE a 9-A1101,NILOUE PERSISTENCE:3
NFPA RATINGS CSCALE 0-4): HEALTH=2 FIRE-O REACTIVITY
COMPONENTS AND CONTAMINANTS
COMPONENT: LANTHANUM NITRATE HEXAHYDRATE
PERCENT: 100
OTHER CONTAMINANTS NONE EXP OSURE LIMITS:
NO OCOUP ATIONAL EXPOSURE LIMITS ESTABLISHED BY OSHA, ACGIH, OR NIOSH, DESCRIPTION ODORLESS, COLORLESS TO WHITE DELIQUESCENT TRICLINIC CRYSTALS
PHYSICAL DATA
BOILING POINT: 259 F C126 c) DECOMP OSES sProxric GRAVITY: 1.0 BOILING POINT 2.5 F C126 0 FIRK AND EXPLOSION HAZARD
MELTING POINT: 1nt F C40 C
SOL UBILITY IN WATERI SOLUBLE FIRE AND EXPLOSION DATA
SOLVENT SOLUBILITY: SOLUBLE NI ALCOHOL, ACIDS, ACETONE NEGLIGIBLE FIRE HAZARD WHEN EXPOSED TO HRAT OR FLAME, MAY RESULT IN IGNITION, VIOLENT COMRUSTION OR EXPLOSION, DRY CHEMICAL, CARBON DIOXIDE, HALON OR WATER SPRAY C198 7 FMERGENCY RESPONSE GUIDEBOOK, DOT P S800, A FOR LARGER FIRES, USE WATER SPRAY OR FOG C1987 EMERGENCY RESPONSE GUIDEEROOK DOT P 5800, € GUIDEBOOK, DOT P 5800, * GUIDE PAGE 352 POSSIBLE. EVACUATE TO A DISTANCE OF 2.500 FEET.
OXIDIZER: OXIDIZERS DECOMP OSF. ESP ECIALLY WHEN HEATED. TD YIELD OXYGEN OR OTHER GASES WHICH WILL INCREASE THE BURNING RATE OF COMBUSTIBLE MATTER, CONTACT WITH EASIL > OXIDIZARLE. ORGANIC, OR OTHER COMBUSTIBLE MATERIAL in
-
FIREFIGHTING MEDIA FIREFIGHTING:
MOVE CONTAINERS FROM FIRE AREA IF POSSIBLE, COOL CONTAINERS EXPOSED TO FLAMES VITH WATER FROM SIDE UNTIL WELL AFTER FIRE IS OUT STAY AWAY FROM STORAGE TANK ENDS, FOR MOSSIVE FIRE IN STORAGE AREA, USE UNMANNED HOSE HOLDER OR MONITOR NOZZLES: ELSE WITHDRAW FROM AREA AND LET FIRE BURN C1987 EMERGENCY RESPONSE FLOOD VITH VATER, COOL CONTAINERS APPLY WATER FROM AS GREAT A DISTANCE AS DEP ARTMENT OF TRONSPORTATION HAZARD CLASSIFICATION 4-9CFR172, 101:
TRANSPORTION DATA
un
