**I ANTHANUM NITROTE HT
**LANTHANUM NITRATE HEAHN
**LANTHANUM NITRATE HEXAH
**LANTHANUM NITRATE HEXAH
MATERIAL SAFETY DOTO SHEET
EMERGENCY CONTACTS:
AFTER BUSINESS HOURS; HOLIDAYS:
(201) 796-7523

0000 1 1854

FISHER SCIENTIFIC
CHEMICAL DIVISION
1 REAGENT LANE
FAIR LAWN NJ 07+10
C201) 796-7100

DATEI

05/19/89
ACCT: 558080-03
INDEXI 03891320023

GASTON L PILLORII C201) 796-7100 PO NBR: J018010
CHEMTREC OSSISTANCE raoo +29-9300 CAT NO. L10500

THE INFORMATION BELOW IS BELIEVED TO BE ACCURATE AND REPRESENTS THE BEST
INFORMATION CURRENTLY AVAILABLE TO US, HOWEVER, WE MAKE NO WARRANTY OF
MERCHANTABILITY OR ANY OTHER WARRANTY, EXP RESS OR IMPLIED. WITH RESP ECT TO
SUCH INFORMATION, AND WE ASSUME NO LIABILITY RESULTING FROM ITS USE USERS
SHOULD MAKE THEIR OWN INVESTIGATIONS TC DETERMINE THE SUITABILITY OF THE

INFORMATION FOR THEIR PARTICULAR PURPOSES,
SUBSTANCE: XXLANTHANUM NITRATE HEXOHYDRATEX
LANTHANUMCIII) NITRATE, HEXAHYDRATE : 3: 6):
NITRIO ACID, LANTHANUMO 3+) SALT, HEXAHYDRATE,
LANTHANUM TRINITRATE HEXAHYDRATE, L-10; ACC12460

SURSTONCE IDENTIFICAT: ION

CAS-NUMBER 10277-43-7

TRADE NAMES/ SYNONYMS,
CHEMICAL FAMILY:
INORGANIC SALT

MOL ECULAR FORMULAI LA, N3-09. 6H20
MOLECULAR WEIGHT: +33, 06

CERCLA RATINGS (SCALE 0-x) HEALTH:2 FIRE: - FALIAILOUSE PERSISTENCE:2

NFPA RATINGS CSCALE 0-4): HEALTH=2 FIRE:0 REACTIVITY:C

COMPONENTS AND CONTAMINANTS

COMPONENT: LANTHANUM NITRATE HEXAHYDRATE

PERCENT: 100

OTHER CONTAMINANTSI NONE
EXP OSURE LIMITS:

NO OCOUP ATIONAL EXPOSURE LIMITS ESTABLISHED BY OSHA, ACGIH, OR NIOSH,
DESCRIPTION: ODORLESS, COLORLESS TO WHITE DELIQUESCENT TRICLINIC CRYSTALS

PHYSICAL DATA

BOILING POINT: 259 F (126 c> DECOMP OSES
SPEOIFIC GRAVITY: 1.0
BOILING POINT: 259 F (126 ox
FIRE AND EXPLOSION HAZARD

MELTING POINT: 10+ F C+0 C

SOL UBILITY IN WATERI SOLUBLE
FIRE AND EXPLOSION DATA

SOLVENT SOLUBILITY: SOLUBLE NI ALCOHOL, ACIDS, ACETONE
NEGLIGIBLE FIRE HAZARD WHEN EXPOSED ro HSAT OR FLAME,
MAY RESULT IN IGNITION, VIOLENT COMRUSTION OR EXPLOSION,
DRY CHEMICAL, CARBON DIOXIDE, HALON OR WATER SPRAY
(198 7 FMERGENCY RESPSE GUIDEBOOK, DOT P 5800, A
FOR LARGER FIRES, USE WATER SPRAY OR FOG
C1987 EMERGENCY RESPONSE GUIDEEROOK DOT P 5800, €
GUIDEBOOK, DOT P 5800, i GUIDE PAGE 35>
POSSIBLE. EVACUATE TO A DISTANCE OF 2500 FEET.

OXIDIZER: OXIDIZERS DECOMP OSE. ESP ECIALLY WHEN HEATED. TO YIELD OXYGEN OR
OTHER GASES WHICH WILL INCREASE THE BURNING RATE OF COMBUSTIBLE MATTER,
CONTACT WITH EASIL > OXIDIZIZARLE. ORGANIC, OR OTHER COMBUSTIBLE MATERIAL in

-

FIREFIGHTING MEDIA
FIREFIGHTING:

MOVE CONTAINERS FROM FIRE AREA IF POSSIBLE, COOL CONTAINERS EXPOSED TO FLAMES
WITH WATER FROM SIDE UNTIL WELL AFTER FIRE IS OUT, STAY AWAY FROM STORAGE TANK
ENDS, FOR MOSSIVE FIRE IN STORAGE AREA, USE UNMANNED HOSE HOLDER OR MONITOR
NOZZLES; ELSE WITHDRAW FROM AREA AND LET FIRE BURN (1987 EMERGENCY RESPONSE
FLOOD WITH WATER, COCL CONTAINERS APPLY WATER FROM AS GREAT A DISTANCE AS
DEP ARTMENT OF TRONSPORTOTION HAZARD CLASSIFICATION 49CFR172, 101:

TRANSPORTATION DATA

un