**LANTHONUM NITRATE HE **LANTHANUM NITRATE HEAHN *XLANTHANUM NITRATE HEXAH **LANTHANUM NITRATE HEXAH MATERIAL SAFETY DATA SHEET EMERGENCY CONTACTS: AFTER BUSINESS HOURS, HOLIDAYS: (201) 796-7523
F
0000 1 1 854
FISHER SCIENTIFIC CHEMICAL DIVISION 1 REAGENT LANE FAIR LAWN 3 00 07+10 C201) 796-7100
DATEI 05/19/89 ACCT: 558080-03 INDEXI 03891320023
GASTON - PILLORI: (201) 796-7100 PO NBR: J018010 CHEMTREC ASSISTANCE: ca00) 429.9300 CAT NO. L10500
THE INFORMATION BELOW IS BELIEVED TO BE ACCURATE AND REPRESENTS THE BEST INF ORMATION CURRENTLY AVAILABLE a TO us, HOWEVER, WE MAKE NO WARRANTY OF MERCHANTABILITY OR ANY OTHER WARRANTY, EXPRESS OR IMPLIED WITH RESPECT TO SUCH INFORMATION, AND WE ASSUME NO LIABILITY RESULTING FROM ITS USE, USERS SHOULD MAKE THEIR OWN INVESTIGATIONS TO DETERMINE THE SUITABILITY OF THE
INFORMATION FOR THEIR PARTICULAR PURPOSES. SUBSTANCE: EXLANTHONUM NTTRATE HEXAHYDRATE** LANTHANUMC III) NITRATE, HEXAHYDRATE 5 3: 6)1 NITRIO ACID LANTHANUMO : SALT. HEXAHYDRATÉ; LANTHANUM TRINITRATE HEXAHYDRATE; L- 10, ACC12+60
SUBSTANCE IDENTIFICATION
CAS- NUMB a ER 10277-43-7
TRADE NAMES/ ISWANONAS. CHEMICAL FAMILY: INORGANIC SALT
MOL ECULAR FORMULA: LA. N3- 09, 6H20 MOL ECULAR WEIGHT: +33, 06
CERCLA RATINGS (SOALE 0-3)1 HEALTH: a FIREE a REACTIVITY: D PERSISTENCE:3
NFPA RATINGS CSCALE 0-+): HEALTHE a FIREED REACTIVITY:O
-
-
COMP ONENTS AND CONTAMINANTS
COMP ONENT LANTHANUM NITRATE HEXAHYDRATE
PERCENT: 100
OTHER CONTAMINANTS: NONE EXP OSURE LIMITS:
NO OCOUP ATIONAL EXP OSURE LTMITS ESTABLISHEC BY OSHA, ACGIH, OR NIOSH, DESCRIPTION: ODORLESS. COLORLESS TO WHITE DELIQUESCENT TRICLINTC CRYSTALS
PHYSICAL DATA
BOILING POINT: 259 F (126 C) DECOMP OSES SPECIFIC GRAVITY: . o BOILING POINT: 259 F C126 o FIRE AND EXPLOSION wazaen
MELTING POINT: 10+ F C+0 C>
SOLURTY IN WATER SOLUBLE FIRE AND EXPLOSION DATA
SOLVENT SOLURTILITY: SOLUBLE NI ALCOHOL. ACIDS. ACETONE NEGLIGIBLE FIRE HAZARD WHEN EXPOSED TO HEAT OR FLAME, MAY RESULT IN IGNITION, VIOLENT COMBUSTION OR EXPL OSION, DRY CHEMICAL CARBON DIOXIDE, HALON OR WATER SPRAY (1987 EMERGENCY RESP ONSE GUIDEBOOK, DOT a 5800, +). FOR LARGER FIRES. USE WATER SPRAY OR FOG C1987 EMERGENCY RESP ONSE GUIDEBOOK, DOT P s800, 5 GUIDEBOOK, DOT P sa00, + GUIDE PAGE 35) POSSIBLE, EVACUATE TO A DISTANCE OF 2500 FEET,
OXIDIZER: OXIDIZERS DECOMP OSE. ESP ECIALLY WHEN HEATED, 2 YIELD OXYGEN OR OTHER GASES WHICH WILL INCREASE THE BURNING RATE OF COMBUSTIBLE MATTER. CONTACT WITH EASILY OXIDIZABLE, ORGANIC, OR OTHER COMBUSTIBLE MATERIALS
FIREFIGHTING MEDIA FIREFIGHTING:
MOVE CONTAINERS FROM FIRE AREA IF POSSIBLE COOL CONTAINERS EXPOSED TO FLAMES HIIA WATER FROM SIDE UNTIL WELL AFTER FIRE SI OUT. STAY AWAY FROM STORAGE TANK ENDS, FOR MASSIVE FIRE NI STORAGE AREA, USE UNMANNED HOSEHOLDER OR MONITOR NOZZLES; ELSE WITHDRAW FROM AREA AND LET FIRE BURN (1987 EMERGENCY RESPONSE FLOOD WITH WATER. COOL CONTAINERS. APPLY WATER FROM AS GREAT A DISTANCE AS DEPARTMENT OF TRANSPORTATION HAZARD CLASSIFICATION +9CFR172, 101
TRANSPORTATION DATA
:
