**LANTITHANUM NITRATE HE **LANTHANUM NITRATE HEAM XXLANTHANUM NITRATE HEXAH XXLANTHANUM NITRATE HEXAH MATERIAL SAFETY DATA SHEET EMERGENCY CONTACTS: AFTER BUSINESS HOURS: HOLIDAYS: C201) 796-7523
F
0000 1 1 854
FISHER SCIENTIFIC CHEMICAL DIVISION 1 REAGENT LANE FAIR LAWN 2 The 07410 C201) 796-7100
DATEI 05/19/89 ACCT: 558080-03 INDEXI 03891320023
GASTON - PILLORI: C201) 796-7100 PO NBR: J018010 CHEMTREC ASSISTANCE: C800) 4:29.9300 CAT NO: L10500
THE INFORMATION BELOW IS BELIEVED TO BE ACCURATE AND REPRESENTS THE BEST INF ORMATION CURRENTLY AVAILABLE - TO US, HOWEVER, WE MAKE NO WARRANTY OF MERCHANTABILITY OR ANY OTHER WARRANTY, EXPRESS OR IMPLIED WITH RESPECT TO SUCH INFORMATION, AND WE ASSUME NO LIABILITY RESULTING FROM ITS USE. USERS SHOULD MAKE THEIR OWN INVESTIGATIONS TO DETERMINE THE SUITABILITY OF THE
INFORMATION FOR THEIR PARTICULAR PURPOSES. SUBSTANCE: EXLANTITHANLIM NTTRATE HEXAHYDRATE** LANTHANUMC III) NITRATE, HEXAHYDRATE : 3: 621 NITRIO ACID LANTHANUMG : SALT HEXAHYDRATE, LANTHANUM TRINITRATE HEXAHYDRATE, L- 10; ACC12460
SUBSTANCE IDENTIFICATION
CAS- NUMB a ER 10277-43-7
TRADE NAMES/ 'SWANONAS. CHEMICAL FAMILY: INORGANIC SALT
MOL FCULAR FORMULA: LA, N3- 09, 6H20 MOL ECULAR WEIGHT: 433. 06
CERCLA RATINGS CSOALE 0-3) HEALTHE et FIREE a REACTIVITY: C PERSISTENCE:3
NFPA RATINGS CSCALE 0-4): HEALTHE a FIREEO REACTIVITY:O
-
-
COMP ONENTS AND CONTAMINANTS
COMP ANENT LANTHANUM NITRATE HEXAHYDRATE
PERCENT 100
OTHER CONTAMINANTS NONE EXP OSURE LIMITS:
NO OCOUP ATIONAL FXP OSURE LIMITS FSTABLISHEC BY OSHA, ACGIH, OR NIOSH, DESCRIPTION ODORLESS COLORLESS TO WHITE DELIQUESCENT TRICLINIC CRYSTALS
PHYSICAL DATA
BOILING POINT: 259 F C126 c) DECOMP OSES SPEOIFIC GRAVITY: - o BOILING POINT 259 F C126 0) FIRE AND EXPLOSION vazaen
MELTING POINT: 10't F C40 C)
SOLURILITY AN WATER SOLUBLE FIRE AND EXPLOSION DATA
SOLVENT SOLUBILITY SOLUBLE NI ALCOHOL, ACTOS. ACETONE NEGLIGIBLE FIRE HAZARD WHEN EXPOSED TO HEAT OR FLAME, MAY RESULT IN IGNITION. VIOLENT COMBUSTION OR EXPL OSION, DRY CHEMICAL CARBON DIOXIDE, HALON OR WATER SPRAY C1987 EMERGENCY RESP ONSE GUIDEBOOK, DOT a. 5800, 4). FOR LARGER FIRES, USE WATER SPRAY OR FOG C1987 EMERGENCY RESPI ONSE GUIDEBOOK. DOT P 5800, € GUIDEBOOK, DOT P 5800, * GUIDE PAGE 35) POSSIBLE. EVACUATE TO A DISTANCE OF 2.500 FEET,
OXIDIZER: OXIDIZERS DECOMP OSE, ESP ECIALLY WHEN HEATED 9 YIELD OXYGEN OR OTHER GASES WHICH WILL INCREASE THE BURNING RATE OF COMBUSTIBLE MATTER. CONTACT WITH EASILY OXIDIZABLE, ORGANIC, OR OTHER COMBUSTIBLE MATERIALS
FIREFICHTING MEDIA FIREFIGHTING:
MOVE CONTAINERS FROM FIRE AREA IF POSSIBLE COOL CONTAINERS EXPOSED TO FLAMES HIIA WATER FROM SIDE UNTIL WELL AFTER FIRE SI OUT, STAY AWAY FROM STORAGE TANK ENDS, FOR MASSIVE FIRE NI STORAGE AREA, USE UNMANNED HOSEHOLDER OR MONITOR NOZZLES: ELSE WITHDRAW FROM AREA AND LET FIRE BURN C1987 EMERGENCY RESPONSE FLOOD WITH WATER. COOL CONTAINERS APPLY WATER FROM AS GREAT A DISTANCE AS DEPARTMENT OF TRANSPORTATION HAZARE CLASSIFICATION 4:90FR172. 101
TRANSPORTATION DATA
a
