*XLANTHANUM NITRATE HE **LANTHANUM NITRATE HEAMR *ELANTHANUM NITRATE HEXAH KXLANTHANUM NITRATE HEXAH MATERIAL SAFETY DATA SHEET EMERGENCY CONTACTS: AFTER BUSINESS HOURS: HOLIDAYS: (201) 796-7523
000011854
FISHER SCIENTIFIO CHEMICAL NOISIAIO r REAGENT LANE FAIR LAWN 2 07+10 C201) 796-7100
DATE:
05/19/89 ACCT: 558080-03 INDEXI 03891320023
GASTON L. PILLORI: C201) 796-7100 Od NBR: J018010 CHEMTREO ASSISTANCE: C800) +29-9300 CAT NO. L10500
THE INFORMATION BELOW IS BELIEVED TO BE ACCURATE AND REPRESENTS THE BEST INFORMATION CURRENTLY AVAILABLE TO US, HOWEVER, y MAKE NO WARRANTY OF MERCHANTABILITY OR ANY OTHER WARRANTY, EXPRESS OR IMPLIED, WITH RESPECT TO SUCH INFORMATION, AND WE ASSUME NO LIABILITY RESULTING FROM ITS USE, USERS SHOULD MAKE THEIR OWN INVESTIGATIONS TO DETERMINE THE SUITABILITY OF THE
INFORMATION FOR THEIR PARTICULAR PURPOSES, SUBSTANCE: *XLANTHANUM NITRATE HEXAHYDRATEXX LANTHANUMCIII) NITRATE, HEXAHYDRATE a : NITRIO ACID, LANTHANUM(3+) SALT, HEXAHYDRATE, LANTHANUM TRINITRATE HEXAHYDRATE, L-10; ACC12460
SUBSTANCE IDENTIFICATION
CAS-NUMBER 10277-43-7
TRADE NAMES/SYNONYMS: CHEMICAL FAMILY: INORGANIO SALT
MOLECULAR FORMULA: LA. N3-09. 6H20 MOLECULAR WEIGHT: 433.06
CERCLA RATINGS (SOALE 0-3): HEALTH= 2 FIRE:O REACTIVITY:O PERSISTENCE:3
NFPA RATINGS (SCALE 0-4): HEALTH=2 FIRE=O REACTIVITY:O
COMPONENTS AND CONTAMINANTS
COMPONENT: LANTHANUM NITRATE HEXAHYDRATE
PERCENT: 100
OTHER CONTAMINANTS: NONE EXPOSURE LIMITS:
NO OCCUPATIONAL EXPOSURE LIMITE ESTABLISHED BY OSHA, ACGIH, OR NIOSH. DESCRIPTION: ODORLESS COLORLESS TO WHITE DELIQUESCENT TRICLINIC CRYSTALS,
PHYSICAL DATA
BOILING POINT: 259 F (126 9 DECOMPOSES SPEOIFIO GRAVITY: 1. 0 BOILING POINT: 259 F (126 0 FIRE AND EXPLOSION HAZARD:
MELTINE POINT: 10+ l C+0 C>
SOLUBILITY IN WATERI SOLUBLE FIRE AND EXPLOSION DATA
SOLVENT SOLUBILITY: SOLUBLE IN ALCOHOL, ACIDS, ACETONE NEGLIGIBLE FIRE HAZARD WHEN EXPOSED TO HEAT OR FLAME, MAY RESULT IN IGNITION, VIOLENT COMBUSTION % EXPLOSION, DRY CHEMICAL, CARBON DIOXIDE, HALON OR WATER SPRAY (1987 EMERGENCY RESPONSE GUIDEBOOK, DOT P s800.4). FOR LARGER FIRES, USE WATER SPRAY OR FOG C1987 EMERGENCY RESPONSE GUIDEBOOK. DOT d 5800,4). GUIDEBOOK, DOT a 5800, i GUIDE PAGE 35) POSSIBLE, EVACUATE TO A DISTANCE OF 2500 FEET.
OXIDIZER: OXIDIZERS DECOMP OSE, ESPECIALLY WHEN HEATED, TO YIELD OXYGEN OR OTHER GASES WHICH WILL INCREASE THE BURNING RATE OF COMBUSTIBLE MATTER, CONTACT WITH EASILY OXIDIZABLE, ORGANIC, OR OTHER COMBUSTIBLE MATERIALS
FIREFIGHTING MEDIA: FIREFIGHTING:
MOVE CONTAINERS FROM FIRE AREA IF POSSIBLE, COOL CONTAINERS EXPOSED TO FLAMES WITH WATER FROM SIDE UNTIL WELL AFTER FIRE IS OUT, STAY AWAY FROM STORAGE TANK ENDS, FOR MASSIVE FIRE NI STORAGE AREA, USE UNMANNED HOSE HOLDER OR MONITOR NOZZLES; ELSE WITHDRAW FROM AREA AND LET FIRE BURN C1987 EMERGENCY RESPONSE FLOOD WITH VATER, COOL CONTAINERS, APPLY WATER FROM AS GREAT A DISTANCE AS DEPARTMENT OF TRANSPORTATIINN HAZARD CLASSIFICATION 49CFR172. 101:
TRANSPORTATION DATA
III
