**LANTHANUM NITRATE HE SXLANTHANUM NITRATE HEANT *KLANTHANUM NITRATE HEXAH AXLANTHANUM NITRATE HEXAH MATERIAL SAFETY DATA SHEET EMERGENCY CONTACTS AFTER BUSINESS HOURS, HOLIDAYS: C201) 796-7523
000011854
FISHER SCIENTIFIC CHEMICAL NOISIAIO el REAGENT LANE FAIR LAWN 3 07410 C201) 796-7100
DATE:
05/19/89 ACCT: 558080-03 INDEX 03891320023
GASTON L. PILLORI C201) 796-7100 od NBR: J018010 CHEMTREO ASSISTANCE: C800) 29-9300 CAT NO: L10500
THE INFORMATION BELOW IS BELIEVED TO BE ACCURATE AND REPRESENTS THE BEST INFORMATION CURRENTLY AVAILABLE TO us, HOWEVER, 9 MAKE NO WARRANTY OF MERCHANTABILETY OR ANY OTHER WARRANTY, EXPRESS OR IMPLIED, WITH RESPECT TO SUCH INFORMATION, AND WE ASSUME NO LIABILITY RESULTING FROM ITS USE. USERS SHOULD MAKE THEIR OWN INVESTIGATIONE TO DETERMINE THE SUITABILITY OF THE
INFORMATION FOR THEIR PARTICULAR PURPOSES, SUBSTANCE: XLANTHANUM NTTRATR HEXAHYDRATES LANTHANUMCIIT) NITRATE, HEXAHYDRATE E : NITRIO AOID, LANTHANUMC34) SALT, HEXAHYDRATE, LANTHANUM TRINITRATE HEXAKYDRATE, L-10; ACCl2460
SUBSTANCE IDENTIFICATION
CAS-NUMBER 10277-43-7
TRADE NAMES/SYNONYM, CHEMICAL FAMILY: INORGANIO SALT
MOLECULAR FORMULAI LA. N3-09. 6H20 MOLECULAR WEIGHT: 433.06
CERCLA RATINGS CSOALE 0-331 HEALTHE 2 FIREEO REACTIVITY:O PERSISTENCE:3
NFPA RATINGS CSCALE 0-4): HEALTH:2 FIREEO REACTIVITY:O
COMPONENTS AND CONTAMINANTS
COMPONENT: LANTHANUM NITRATE HEXAHYDRATE
PERCENT: 100
OTHER CONTAMINANTS NONE EXPOSURE LIMITS:
NO OCOUPATIONAL EXPOSURE LIMTTS ESTABLISHEE BY OSHA, ACGIH, OR NIOSH. DESORIPTION: ODORLESS COLORLESS To WHITE DELIQVESCENT TRICLINIC CRYSTALS.
PHYSICAL DATA
BOILING POINT: 259 F C126 9 DECOMPOSES SPEOIPIO GRAVITY, 1. o BOILING POINT: 259 P C126 9 FIRE AND EXPLOSION HAZARD:
MELTTNE POINT: 104 L C40 C)
SOLUBILITY TN WATER: SOLUBLE FIRE AND EXPLOSION DATA
SOLVENT SOLUBILITY: SOLUBLE IN ALCOHOL. ACIDS, ACETONE NEGLIGIBLE FIRE HAZARD WHEN EXPOSED TO HEAT OR FLAME. MAY RESULT IN IGNITION, VIOLENT COMBUSTION 6 EXPLOSION, DRY CHEMICAL, CARBON DIOXIDE, HALON OR WATER SPRAY C1987 EMERGENCY RESPONSE GUIDEBOOK, DOT P 5800.4>. FOR LARGER FIRES, USE WATER SPRAY OR FOG C1987 EMERGENCY RESPONSE GUIDEBOOK, DOT d 5800.4>. GUIDEBODK, DOT a 5800, * GUIDE PAGE 35) POSSIBLE. EVACUATE TO A DISTANCE OF 2500 FEET.
OXIDIZER: OXIDIZERS DECOMP OSE, ESPECIALLY WHEN HEATED, TO YIELD OXYGEN OR OTHER GASES WHICH WILL INCREASE THE BURNING RATE OF COMBUSTIBLE MATTER. CONTACT WITH EASILY OXIDIZABLE. ORGANIC, OR OTHER COMBUSTIELE MATERIALS
FIREFIGHTING MEDIA: PIREPIGHTING:
MOVE CONTAINERS FROM FIRE AREA IF POSSIBLE, COOL CONTAINERS EXPOSED TO FLAMES WITH WATER FROM SIDE UNTIL WELL AFTER FIRE IS OUT. STAY AWAY FROM STORAGE TANK ENDS. FOR MASSIVE FIRE NI STORAGE AREA, USE UNMANNED HOSE HOLDER OR MONITOR NOZZLES, ELSE WITHDRAW FROM AREA AND LET FIRE BURN C1987 EMERGENCY RESPONSE FLOOD WITH WATER. cooL CONTAINERS. APPLY WATER FROM AS GREAT A DISTANCE As DEPARTMENT OF TRANSPORTATION HAZARD CLASSIFICATION 49CFR172, 101:
TRANSPORTATION DATA
II
