XKI ANTHANUM NITRATE HF
**LANTHANUM NITRATE HEAHR
KXLANTHANUM NITRATE HEXAH
KXLANTHANUM NITRATE HEXAH
MATERIAL SAFETY DOTO SHEET
EMERGENCY CONTACTS:
AFTER BUSINESS HOURS: HOLIDAYS:
(201) 796-7523

0000 1 1854

FISHER SCIENTIFIC
CHEMICAL DIVISION
1 REAGENT LANE
FAIR LAWN NJ 07+10
C201) 796-7100

DATEI

05/19/89
ACCT: 558080-03
INDEXI 03891320023

GASTON L. PILLORI: (201) 796-7100 PO NBR: J018010
CHEMTREC ASSISTANCE: Caoo) +29-9300 CAT NO. L10500

THE INFORMATION BELOW IS BELIEVED TO BE ACCURATE AND REPRESENTS THE BEST
INFORMATION CURRENTLY AVAILABLE TO US, HOWEVER, WE MAKE NO WARRANTY OF
MERCHANTABILITY OR ANY OTHER WARRANTY, EXP RESS OR IMPLIED, WITH RESP ECT TO
SUCH INFORMATION, AND WE ASSUME NO LIABILITY RESULTING FROM ITS USE USERS
SHOULD MAKE THEIR OWN INVESTIGIGATIONS TO DETERMINE THE SUITABILITY OF THE

INFORMATION FOR THEIR PARTICULAR PURPOSES,
SUBSTANCE: XELANTHANUM NITRATE HEXAHYDRATEX
LANTHANUMCIII) NITRATE, HEXAHYDRATE 5 3: 6):
NITRIO ACID, LANTHANUMC 3+) SALT, HEXAHYDRATE,
LANTHANUM TRINITRATE HÈXAHYDRATE, L-10; ACC12460

SURSTONCE IOENTIFIIAT: ION

CAS-NUMBER 10277-43-7

TRADE NAMES/ SYNONYMS:
CHEMICAL FAMILY:
INORGANIC SALT

MOL ECULAR FORMULA: LA. N3-09. 6H20
MCLECULLR WEIGHT: +33. 06

CERCLA RATINGS (SOALE 0-3) HEALTH=2 FIRE: 0 -AA10228 PERSISTENCE:2

NFPA RATINGS CSCALE 0-4): HEALTH=2 FIRE=O REACTIVITY:

COMPONENTS AND CONTAMINANTS

COMPONENT: LANTHANUM NITRATE HEXAHYDRATE

PERCENT: 100

OTHER CONTAMINANTS: NONE
EXP OSURE LIMITS:

NO OCOUP ATIONAL EXPOSURE LIMITS ESTABLISHED BY OSHA, ACGIH, OR NIOSH,
DESCRIPTION: ODORLESS, COLORLESS TO WHITE DELIQUESCENT TRICLNICC CRYSTALS

PHYSICAL DATA

BOILING POINT: 259 F (126 C) DECOMP OSES
SPEOIFIO GRAVITY: 1.0
BOILING POINT: 259 F (126 0
FIRK AND EXPLOSION HAZARD:

MELTING POINT: 10% F C+0 C

SOL UBILITY IN WATERI SOLUBLE
FIRE AND EXPLOSION DATA

SOLVENT SOLUBILITY: SOLUBLE NI ALCOHOL, ACIDS, ACETONE
NEGLIGIBLE FIRE HAZARD WHEN EXPOSED TO HEAT OR FLAME,
MAY RESULT IN IGNITION, VIOLENT COMRUSTION OR EXPLOSION,
DRY CHEMICAL, CARBON DIOXIDE, HALON OR WATER SPRAY
C198 7 EMERGENCY RESPONSE GUIDEBOOK, DOT P s800, A
FOR LARGER FIRES, USE WATER SPRAY OR FOG
C1987 EMERGENCY RESPONSE GUIDEHOOK DOT P 5800. 3
GUIDEBOOK, DOT P 5800, + GUIDE PAGE 35)
POSSIBLE. EVACUATE TO A DISTANCE OF 2500 FEET.

OXIDIZER: OXIDIZERS DECOMP OSE. ESP ECIALLY WHEN HEATED, TO YIELD OXYGEN OR
OTHER GASES WHICH WILL INCREASE THE BURNING RATE OF COMBUSTIBLE MATTER,
CONTACT WITH EASIL > OXIDIZIZAHLE. ORGANIC, OR OTHER COMBUSTIBLE MATERIAL i

-

FIREFIGHTING MEDIA:
FIREFIGHTING:

MOVE CONTAINERS FROM FIRE AREA IF POSSIBLE, COOL CONTAINERS EXPOSED TO FLAMES
WITH WATER FROM SIDE UNTIL WELL AFTER FIRE IS OUT. STAY AWAY FROM STORAGE TANK
ENDS, FOR MOSSIV: FIRE IN STORAGE AREA, USE UNMANNED HOSE HOLDER OR MONITOR
NOZZLES ELSE WITHDRAW FROM AREA AND LET FIRE BURN (1987 EMERGENCY RESPONSE
FLOOD WITH WATER, COOL CONTAINERS APPLY WATER FROM AS GREAT A DISTANCE AS
DEP ARTMENT OF TRONSPORTTATION HAZARD CLASSIFICATION 49CFR172, 101:

TRANSPORTAAIION DATA

u