(ELANTHANUM NITRATE HT ERLANTHANUM NITRATE HEAMA ERLANTHANUN NITRATE HEXAH EELANTHANUN NITRATE HEXAH MATERIAL SAFETY DATA SHEET EMERGENCY CONTACTS AFTER BUSINESS HOURS HOLIDAYS: (201) 796-7523
0000 - 185 4
FISHER SCIENTIFIC CHEMICAL DIVISION 1 REAGENT LANE FAIR LAWN NJ 07410 C201) 796-7100
DATE: 05/19/89 ACCT: S5RORI80-03 INDEX 03891320023
GASTON L PILLORI c201) 796-7100 PO NBR: OTOSIOr CHEMTREC ASSISTANCE C800) 429-9300 CAT NO: L10500
THE INFORMOTION BELOW IS BELIEVED TO BE ACCURATE AND REPRESENTS THE BEST INF ORMATION CURRENTLY AVAILABL E TO US, HOWEVER, WE MAKE NO WARRANTY OF MERCHANTABILITY OR ANY OTHER WARRANTY, EXP - RESS OR IMPLIED WITH RESP ECT TO SUCH INFORMATION AND WE ASSUME NO LIABILITY RESULTING FROM ITS USE. USERS SHOULD MAKE THEIR OWN INVESTISAYIONS TO DETERMINE THE SUITABILITY OF THE
INFORMATION FOR THEIR PARTICULAR PURPOSES SUBSTANCE: E*LANTHANUN NITRATE HEXAHYDRATET i - ANTHANUMCIII NITRATE. MEXAMVORATE 3 M: 6) NITRIC ACID. ANTHANUME3+: SALT, LEXAHYDRATE LANTHANUM TNTTR TE HEXAMYORATE L-10; ACC12+80
SUBSTANCE IOENTIFIS
CAS NUMBER 10277-43-1
TRADE NAMES/SYNONYMS CHEMICAL FAMILY INORGANIC SALT
MOL ECULAR FORMULA LA. N3-09, 6H20 MOL ECULAR WEIGHT: +33. 06
CERCLA RATINGS CSCALE 0-3)1 HEALTHS a FIRE=O JEALIAlLOUsE PERSISTENCER3
NFPA RATINGS CSCALE 0-4): HEALTH=2 FIRE=O REACTIVITY: a
COMPONENTS AND CONTAMTNTS
COMP ONENT: LANTHANUM NITRATE HEXANYDRATE
PERCENT: 100
OTHER CONTAMINANTS NONE EXP OSURE LIMITS:
NO OCCUPATIONAL EXPOSURE LTMTTS ESTABLISHED BY OSHA, ACGIH, OR NIOSH, DESCRIPTION ODORLESS, COLORLESS TO WHITE DELIQUESCENT TRIOLINIC CRYSTALS
PHYSICAL DATA
BOILING POINT: 259 F c126 C DECOMP OSES SPEOIFIC GRAVITY: 1.0 BOILING POINT: 259 F (126 03 FIRE AND EXPLOSION HA7A8D
MELTING POINT: 10t F C40 C)
SOLURTTY IN WATER: SOLUBLE FIRE AND EXPLOSION DATA
SOLVENT SOLUSILITY: SOLUBLE IN ALCOHOL. ACIDS, ACETONE MEGLISIBLE FIRE HAZARD WHEN EXPOSED TO HEAT OR FLAME. MAY RESULT IN IGNITION VIOLENT COMBUSTION OR EXPLOSION DRY CHEMICAL CARRON DIOXIDE. HALON OR WATER SPRAY (1987 EMERGENCY RESP ONSE GUIDEBOOK, DOT P S800, $ FOR LARGER FIRES. USE WATER SPRAY OR FOG C198 7 EMERGENCY RESPONSE GUIDEBOOK DOT P 5800.4). QUIDEBOOK DOT P 5800, + GUIDE PAGE 35) POSSIBLE. EVACUATE TO a DISTANCE OF 2500 FEET.
OXIDIZER: OXIDIZERS DEGOMP OSE, ESP ECIALLY WHEN HFATED TO YIELD OXYGEN OR OTHER GASES WHICH WILL INCREASE THE BURNING RATE OF COMBUSTIBL E MATTER. CONTACT WITH EASIL Y OXIDIZABLE, ORGANIC. OR OTHER COMBUSTIBLE MATERIALS
FIREFIGHTING MEDIA: FIREFIGHTING
MOVE CONTAINERS FROM FIRE AREA IF POSSIBLE COOL CONTAINERS EXP OSED TO FLAMES WITH WATER FROM SIDE UNTIL WELL AFTER FIRE IS OUT, STAY - AWAY FROM STORAG E TANK ENDS, FOR MASSIVE FIRE IN ST ORAGE AREA, USE UNMANNED HOSE HOLDER OR MONITOR NOZZLES; ELSE WITHORAW FR OM AREA AND LET FIRE BURN C1987 EMERGENCY RESP ONSE FLOOD WITH WATER. COOL CONTAINERS APPLY WATER FROM AS GREAT A DISTANCE AS DEPARTMENT OF TRONSPOBTATTOM HAZARP CLASSIFIFICATION +9CFR1 72. 101
TRANSP ORTATION DATA
