**L ANTHANUM NITBATE HT
EELANTHANUM NITRATE HEAMn
EELANTHANUN NITRATE HEXAH
EELANTHANUN NITRATE HEXAH
MATERIAL SAFETY DOTO SHEET
EMERGENCY CONTACTS
AFTER BUSINESS HOURS, HOLIDAYS
(201) 796-7523

0000 1 1854

FISHER SCIENTIFIC
CHEMICAL DIVISION
1 REAGENT LANE
FAIR LAWN NJ 07410
C201) 796-7100

DATEI

05/19/89
ACCT: 558080-03
INDEXI 03891320023

GASTON L PILLORI C201) 796-7100 PO NBR: J018010
CHEMTREC ASSISTANCE rano) 429-9300 CAT NOI L10500

THE INFORMATION RELOW Is BELIEVED TO BE ACCURATE AND REPRESENTS THE BEST
INFORMATION CURRENTLY AVAILABLE TO US, HOWEVER, WE MAKE NO WARRANTY OF
MERCHANTABILITY OR ANY OTHER WARRANTY, EXP RESS OR IMPLIED. WITH RESP ECT TO
SUCH INFORMATION AND WE ASSUME NO LIABILITY RESULTING EROM ITS usK USERS
SHOULD MAKE THEIR OWN INVESTIGATIONS TC DETERMINE THE SUITARILITT OF THE

INFORMATION FOR THEIR PARTICULAR PURPOSES
SUBSTANCE: ERLANTHANUN NITRATE HEXAHYDRATE*
LANTMANUWCIZX) NITRATE, HEXAHYDRATE 3 3: 6):
NITRIO AOID, LANTHANUMG 3+) SALT, HEXAMYDRATE
LANTHANUM TRINITRATE HEXARYDRATE; L-10, ACCIè+60

SURSTANCE IDENTIFICAT ION

CAS-NUMBER 10277-43-7

TRADE NAMES/ SYNONYMS:
CHEMICAL FAMILY
INDRGANIC SALT

MOL ECULAR FORMULA LA. N3-09, 6H20
MOLECULAR WEIGHT: +33. 06

CERCLA RATINGS (SOALE 0-X1 HKALTH:R FIREE e JEALIAlLOUsE PERSISTENCES3

NFPA RATINGS CSCALE 0-42: HEALTHE2 FIRE= REACTIVITYEO

COMPONENTS AND CONTAMINANTS

COMPONENT: LANTHANUM NITRATE HEXANYDRATE

PERCENT: 100

OTHER CONTAMINANTS NONE
EXP OSURE LIMITS:

NO OCOUP ATIONAL EXPOSURE LIMITS ESTABLISHED BY OSHA, ACGIH, OR NIOSH.
DESCRIPTION ODORLESS, COLORLESS TO WHITE DELIQUESCENT TRICLINIC CRYSTALS

PHYSICAL DATA

BOILING POINT: 259 F c126 C) DECOMP OSES
SPEOIFIC GRAVITY: 1.0
BOILING POINT: 259 F C126 C
FIRK AND EXPLOSION HAZARD

MELTING POINT: 10 F C40 C)

SOL UBILITY IN WATER SOLUBLE
FIRE AND EXPLOSION DATA

SOLVENT SOLUSILITY: SOLUBLE NI ALCOHOL. ACIDS, ACETONE
NEGLIGIBLE FIRE HAZARD WHEN EXPOSED TO HSAT OR FLAME.
MAY RESULT IN IGNITION, VIOLENT COMBUSTION OR EXPLOSION,
DRY CHEMICAL, CARRON DIOXIDE. HALON OR WATER SPRAY
c198 7 EMERGENOY RESPONSE GUIDEROOK. DOT P S800, -
FOR LARGER FIRES. USE WATER SPRAY OR FOG
C1987 EMERGENCY BESPONSE GUIDEEROOK DOT P 5800. 3
GUIDEBOOK, DOT P 5800, - GUIDE PAGE 35)
POSSIBLE. EVACUATE TO a DISTANCE OF 2500 FEET.

OXIDIZER: OXIDIZERS DECOMP oSK. ESP ECIALLY WHEN HEATED. TO YIELD OXYGEN OR
OTHER GASES WHICH WILL INCREASE THE BURNING RATE OF COMBUSTIBLE MATTER,
CONTACT WITH EASIL > OMIDIZIZABLE. ORGANIC. OR OTHER COMBUSTIBLE MATERIAL in

-

FIREFIGHTING MEDIA
FIREFIGHTING:

MOVE CONTAINERS FROM FIRE AREA IF POSSIBLE COOL CONTAINERS EXPOSED TO FLAMES
WITH WATER FROM SIDE UNTIL WELL AFTER FIRE IS OUT, STAY AWAY FROM STORAGE TANK
ENDS, FOR MASSIVE FIRE IN STORAGE AREA, USE UNMANNED HOSE HOLDER OR MONITOR
NOZZLES ELSE WITHORAW FROM AREA AND LET FIRE BURN (1987 EMERGENCY RESPONSE
FLOOD WITH WATER. COOL CONTAINERS APPLY WATER FROM AS GREAT a DISTANCE AS
DEP ARTMENT OF TRONSPOBTATTOM HAZARD CLASSIFICATION 49CFR172 101:

TRANSPORTATION DATA

