(*LANTHANUM NITRATE HE
**LANTHANUM NITRATE HEAHM
**LANTHANUM NITRATE HEXAH
**LANTHANUM NITRATE HEXAH
MATERIAL SAFETY DATA SHEET
EMERGENCY CONTACTS:
AFTER BUSINESS HOURS: HOLIDAYS:
(201) 796-7523

0000 L 185 4

FISHER SCIENTIFIC
CHEMICAL DIVISION
1 REAGENT LANE
FAIR LAWN NJ 07+10
C201) 796-7100

DATEI 05/19/89
ACCT:
558080-03
INDEX: 03891320023

GASTON L PILLORI C201) 796-7100 PO NBR: 0t08tor
CHEMTREC OSSISTANCE C800) +29-9300 CAT NO: L10500

THE INFORMTIIO BELOW IS BELIEVED TO BE ACCURATE AND REPRESENTS THE BEST
INF TORMATION CURRENTLY AVAILABL F TO US, HOWEVER, WE MAKE NO WARRANTY OF
MERCHANTABILITY OR ANY OTHER WARRANTY, EXP . RESS OR IMPLIED WITH RESP ECT TO
SUCH INFORMATION, AND WE ASSUME NO LIABILITY RESULTING FROM ITS USE, USERS
SHOULD MAKE THEIR OWN INVESTIGATIONS TO DETERMINE THE SUITABILITY OF THE

INFORMATION FOR THEIR PARTICULAR PURPOSES,
SUBSTANCE: **LANTHANUM NITRATE HEXAHYDRATE* C
J ANTHANUMCIII: NITRATE, HEXAHYDRATE 3 3: 62
NITRIC ACID. ANTHANUMC3+: SALT, HEXAHYDRATE
LANTHANUM TNTTR TE HEXAHYDRATE L-10; ACC12460

SURSTACE IDENTFFI

CAS NUMBER 10277-43-7

TRADE NAMES/SYNONYMS
CHEMICAL FAMILY:
INORGANIC SALT

MOL ECULAR FORMULA LA, N3-09, 6H20
MOL ECULAR WEIGHT: +33. 06

CERCLA RATINGS CSCALE 0-3)1 HEALTH: a FIREEO EAAIA110VS8 PERSISTENCE:3

NFPA RATINGS CSCALE 0-+): HEALTH=2 FIRE=O REACTIVITY: a

COMPONENTS AND CONTOMINONTS

COMP ONENT: LANTHANUM NITRATE HEXAHYDRATE

PERCENT: 100

OTHER CONTNS NONE
EXP OSURE LIMITS:

NO OCCUPATIONAL EXPOSURE LTMTTS ESTABLISHEC BY OSHA, ACCIH, OR NIOSH,
DESCRIPTION, ODORLESS, COLORLESS TO WHITE DELIQUESCENT TRICLINIC CRYSTALS

PHYSICAL DATA

BOILING POINT: 259 F (126 C DECOMP OSES
SPEOIFIC GRAVITY: 1.0
BOILING POINT: 259 F (126 o)
FIRE AND EXPLOSION HAZORD

MELTING POINT: 104 F C+0 c

SOLURILITY IN WATER SOLUBLE
FIRE AND EXPLOSION DATA

SOLVENT SOLUBILITY: SOLUBLE IN ALCOHOL, ACIDS, ACETONE
NEGLIGIBLE FIRE HAZARD WHEN EXPOSED TO HEAT OR FLAME,
MAY RESULT IN IGNITION VIOLENT COMBUSTION OR EXPLOSION.
DRY CHEMICAL CARBON DIOXIDE, HALON OR WATER SPRAY
C1987 EMERGENCY RESP ONSE GUIDEBOOK, DOT P 5800, C
FOR LARGER FIRES. USE WATER SPRAY OR FOG
C198 7 EMERGENCY RESPONSE GUIDEBOOK. DOT P 5800.4).
GUIDEBOOK. DOT P 5800, * GUIDE PAGE 35)
POSSIBLE. EVACUATE TO A DISTANCE OF 2500 FEET.

OXIDIZER: OXIDIZERS DECOMP OSE, ESP ECIALLY WHEN HEATED TO YIELD OXYGEN OR
OTHER CASES WHICH WILL INCREASE THE BURNING RATE OF COMBUSTIBL E MATTER,
CONTACT WITH EASIL Y OXIDIZABLE, ORGANIC, OR OTHER COMBUSTIBLE MATERIALS

FIREFIGHTING MEDIA:
FIREFIGHTING

MOVE CONTAINERS FROM FIRE AREA IF POSSIBLE COOL CONTAINERS EXP OSED TO FLAMES
WITH WATER FROM SIDE UNTIL WELL AFTER FIRE IS OUT. STAY . WAY FROM STORAG E TANK
ENDS, FOR MASSIVE FIRE IN ST ORAGE AREA, USE UNMANNED HOSE HOLDER OR MONITOR
NOZZLES; ELSE WITHDRAW FR OM AREA AND LET FIRE BURN (1987 EMERGENCY RESP ONSE
FLOOD WITH WATER. COOL CONTAINERS APPLY WATER FROM AS GREAT A DISTANCE AS
DEPARTMENT OF TRANSPORTATION HAZARD CLASSIFICATION +99FR1 72, 101

TRANSP ORTATION DATA