**L ANTHANUM NITRATE HT
**LANTHANUM NITRATE HEAHE
*XLANTHANUM NITRATE HEXAH
*XLANTHANUM NITRATE HEXAH
MATERIAL SAFETY DATa SHEET
EMERGENCY CONTACTS
AFTER BUSINESS HOURS, HOLIDAYS:
C201) 796-7523

0000 1 1854

FISHER SCIENTIFIC
CHEMICAL DIVISION
1 REAGENT LANE
FAIR LAWN NJ 07410
C201) 796-7100

DATE:

05/19/89
ACCT: 558080-03
INDEX: 03891320023

GASTON L PILLORI: C201) 796-7100 Po NBR: J018010
CHEMTREC ASSISTANOE, ca0os 29-9300 CAT NO: LI0500

THE INFORMATION BELOW IS BELIEVED TO BE ACCURATE AND REPRESENTS THE BEST
INFORMATION CURRENTLY AVAILABLE TO us, HOWEVER, WE MAKE NO WARRANTY OF
MERCHANTABILITY aR ANY OTHER WARRANTY, EXP RESS OR IMPLIED, WITH RESP ECT TO
SUCH INFORMATION, AND WE ASSUME NO LIABILITY RESULTING FROM ATs us USERS
SHOULD MAKE THEIR OWN INVESTIGIGATIONS To DETERMINE THE SUITABILITY o THE

INFORMATION FOR THEIR PARTICULAR PURPOSES,
SUBSTANCE: IELANTHANUM NITRATE HEXAHYDRATE*
LANTHANUMCIII) NITRATE, HEXAHYDRATE 3 3: 6):
NITRIO AOID, LANTHANUMG 3+) SALT, HEXAHYDRATE,
LANTHANUM TRINITRATE HEXAHYDRATE, L-10, ACCl2460

SURSTANCE IDENTIPICAT: KON

CAS-NUMBER 10277-43-7

TRADE NAMES/ SYNONYMS,
CHEMICAL FAMILY:
INORGANIC SALT

MOL ECULAR FORMULA: LA. N3-09. 6H20
MOLECULAR WEIGHT: 433. 06

CERCLA RATINGS CSCALE 0-X51 HEALTH:R FIREE - FALIALo03s PERSISTENCE=

NFPA RATINGS CSCALE 0-42: HEALTH:2 FIRE=O REACTIVETYEE

COMPONENTS AND CONTAMZNANTS

COMPONENT: LANTHANUM NITRATE HEXAHYDRATE

PERCENT: 100

OTHER CONTAMINANTS NONE
BXP OSURE LIMITS:

NO o0ouP ATIONAL EXPOSURE LIMITS ESTABLISHEE BY OSHA, ACGIH, OR NIOSH.
DESCRIPTION: ODORLESS, COLORLESS TO WHITE DELIQVESCENT TRICLINTC CRYSTALS

PHYSICAL DATA

BOILING POINT: 259 F C126 e) DECOMP OSES
SPEOIPIO GRAVITY, 1.0
BOILING POINT: 2 P C126 o3
FIRK AND EXPLOSION HAZARD:

MELTING POINT: 1a* F C40 os

SOL UBILITY TN WATERI SOLUBLE
FIRE AND EXPLOSION DATA

SOLVENT SOLUBILITY: SOLUBLE NI ALCOHOL. ACIDS, ACETONE
NEGLIGIRLE FIRE HAZARD WHEN EXPOSED Te HAT OR FLAME.
MAY RESULT IN IGNITION, VIOLENT COMRUSTION OR EXPLOSION,
DRY CHEMICAL, CARBON DIOXIDE. HALON OR WATER SPRAY
C198 7 FMERRY RESPONSE GUIDEBOOK, DOT P 5800, A
FOR LARGER FIRES, USE WATER SPRAY OR FOG
C1987 EMERCENCY RESPONSE GUIDEEROOK DOT P 5800. $
GUIDEBODK, DOT P 5800, * GUIDE PAGE 35)
POSSIBLE. EVACUATE TO A DISTANCE OF 2500 FEET.

OXIDIZER: OXIDIZERS DECOMP oss. ESP ECIALLY WHEN HEATED, TO YIELD OXYGEN OR
OTHER GASES WHICH WILL INCREASE THE BURNING RATE OF COMBUSTIBLE MATTER,
CONTACT WITH EASIL > oXIDIZIZARLE. ORGANIC, OR OTHER COMBUSTIRLE MATERIAL bs

-

FIREFIGHTING MEDIA:
FIREFIGHTING:

MOVE CONTAINERS FROM FRE AREA IF POSSIBLE, cOOL CONTAINERS EXPOSED To FLAMES
WITH WATER FROM SIDE UNTIL WELL AFTER FIRE Is OUT, STAY AWAY FROM STORAGE TANK
ENDS, FOR MASSIV FIRE IN STORAGE AREA, USE UNMANNED HOSE HOLDER OR MONITOR
NOZZLES, ELSE WITHDRAW FROM AREA AND LET FIRE BURN C1987 EMERGENCY RESPONSE
FLOOD WITH WATER. cooL CONTAINERS APPLY WATER FROM AS GREAT A DISTANCE As
DEP ARTMENT OF TRONSPORTATTON HAZARD CLASSIFICATION 49CFR172. 101:

TRANSPORTATION DATA

-