HANUM NITBATE HE
*ELANTHANUM NITRATE HEAHM
KLANTHANUM NITRATE HEXAH
* ANTHANUM NITRATE HEXAH
MATERIAL SAFETY DATA SHEET
EMERGENCY CONTACTS
AFTER BUSINESS HOURS; HOLIDAYSI
(201) 796-7523

00001 1 854

FISHER SCIENTIFIC
CHEMICAL DIVISION
- REAGENT LANE
FAIR LAWN NJ 07410
u 201) 796-7100

DATE: 05/19/89
ACCT: 558080-03
INDEX: 03891320023

GASTON J PILLORI: (201) 796-7100 PONBR: J018010
CHEMTREC ASSISTANCES C800) 429-9300 CAT NO L10500

THE INFORMATION BELOW IS BELIEVED 9 BE ACCURATE AND REPRESENTS THE BEST
INFORMATION CURRENTLY AVAILABLE TO - HOWEVER, - MAKE NO WARRANTY OF
MERCHANTABILITY AR ANY OTHER WARRANTY, EXPRESS OR IMPL IED WITH RESP ECT TO
SUCH INFORMA TION, AND W ASSUME No TABIL) IT RESULTING FROM ITS USE. USERS
SHOULD MAKE THEIR OWN INVESTIGATIONS TO DETERMINE THE SUITABILITY OF - HE

INFORMATION FOR THEIR PARTICULAR PURPOSES,
SUBSTANCE: SELANTHANUM NITRATE HEXAHYDRATEXI
LANTHANUM(IEE) NITRATE HEXAHYORATE : a
NITRIO ACID, ANT THANU 2 4 BAL HEXAHYORATE
LANTHANUM TRINITRATE HEXAHYORATE, L-10; ACCIà+60

SUBSTANCE IDENTIFICA - TTON

CAS-NUMRER 10277-43-7

TRADE NAMES/ SYNONYMS
CHEMICAL FAMILY
INORGANIC SALT

MOL ECULAR FORMULA LA. N3-09,. 6H20
MOL FCULAH WEIGHT: +33, 06

CERCLA RATINGS (SOALE 0-3)1 HEALTH: 2 FIREEO REACTIVITYSS PERSISTENCE:3

NFPA RATINGS CSCALE C 2 HEALTH= 12 FIREEO REAGTIVITV:O

COMPONENTS AND CONTAMINANTS

COMPONENTI LANTHANUM NITRATE HEXAMYDRATE

PERCENT: 100

OTHER CONTOMINANTS NONE
EXP OSURE LIMITS:

NO OSCUPATIONAL EXPOSURE LIMITS ESTABLISHED BY OSHA, ACGIH, OR NIOSH.
DESCRIPTION ODORLESS COLORLESS TO WHITE DELIGUESCENT TRICLINIC CRYSTALS.

PHYSICAL DATA

ROILING POINT: 259 F (126 C) DECOMPOSES
SP EOIFIC GRAVITY: 1,0
BOILING POINT: an F C126 0>
FIRE AND (XPL OSION HAZARD:

MELTING POINT: 104 F C+0 S

SOLUBILITY IN WATER: SOLUBLE
FIRE AND EXPLOSION DATA

SOLVENT SOLUBILITY SOLUBLE IN ALCOHOL, ACIDS, ACETONE
NEGLIGIBLE FIRE HAZARD WHEN EXPOSED TO HEAT OR FLAME.
MAY RESULT IN IGNITION, VIOLENT COMBUSTION OR EXPL OSION.
DRY CHEMICAL CARBON DIOXIDE. HALON OR WATER SPRAY
(1987 EMERGENCY RESPONSE GUIDEBOOK, DOT P 5800, 2
FOR LARG ER FIRES. USE WATER SPRAY OR FOG
(1987 EMERGENCY RESPONSE GUIDEBOOK. DOT P 5800, 3
QUIDEBODK, DOT - 5800, * GUIDE PAGE 352
POSSIBLE, EVACUATE TO A DISTANCE OF 2500 FEET.

OXIDIZER: OXIDIZERS DECOMPOSE ESPECIALLY WHEN HEATED. TO YIELD OXYGEN OR
OTHER GASES WHICH WILL INCREASE THE BURNING RATE OF COMBUSTISL E MATTER,
CONTACT WITH EASIL y OXIDI: ZARL L ORGANIC OR OTHER GOMBUSTIBLE MATERIALS

FIREFIGHTING MEDIA
FIREFIGHTING

MOVE CONTAINERS FROM FIRE AREA IF A OSSIBLE, COOL CONTAINERS EXPOSED TO FLAMES
WITH WATER FROM SIDE UNTIL WELL AFTER FIRE SI OUT, STAY AWAY FROM STORAGE TANK
ENDS, FOR MASSIVE FIRE IN STORAGE AREA, USE UNMANNED HOSE HOLDER OR MONITOR
NOZZLI ES; EL SE WITHDRAW FROM AREA AND LET FIRE BURN (1987 EMERGENCY RESPONSE
FL OOD WITH WATER, COOL CONTAINERS APPLY WATER FROM AS GREAT A DISTANCE AS

RTOT TION DATA
TE

DEPARTMENT OF TRI

- . TAT a HAZARD

-