**LANTHANUM NITRATE Hr **LANTHANUM NITRATE HEAHM **LANTHANUM NITRATE HEXAH *LANTHANUM NITRATE HEXAH MATERIAL SAFETY DATA SHEET EMERGENCY CONTACTS AFTER RUSINESS HOURS; HOLIDAYS C201) 796-7523
VS8110000
FISHER SCIENTIFIC CHEMICAL DIVISION - I REAGENT LANK FAIR LAWN 2 07410 C2013 796- 7100
DATE: 05/19/89 ACCT: 558080- : INDEX 03 3891320023
GASTON L. PILLORI: C201) 796-7100 PO NBR: J018010 CHEMTREC OSSISTANCEI C800) 429-9300 CAT NOI L10500
THE INFORMATION BELOW IS BELIEVED TO BE ACCURATE non REPRESENTS THE BEST INFORMATION CURRE ENTLY AVAILABLE TO US, HOWEVER, VE MAKE NO WARRANTY OF MERCHANTABILITY ar ANY OTHER WARRANTY, EXPRESS OR IMPLIED. WITH RESP ECT TO SUCH INFORMATION, ove 5 ASSUME NO LIABIL - TY RESULTING FROM ITS USE. USERS SHOULD MAKE THEIR OWN INVESTIGIGATIONS TO DETERMINE THE SUITABILITY OF THE
TNFORMATION FOR THEIR PARTICULAR PURPOSES, SUBSTANCE: *LANTHANLIM NTTRATE HEXAHYDRATEXX LANTHANUMCIII) NITRATE, HEXAHYDRATE : 3: 6) NITRIC ACID, LANTHANUM(34) SALT, HEXAHYDRATE, L ANTHANUM TRINITRATE HEXAHYDRATE, L-10; ACCIÈ460
SUBSTANCE IDENTIFICATION
CAS-NUMBER 10277-43-7
TRADE NOMES/CVNGMS. CHEMICAL FAMILY: INORGANIC SOLT
MOLFOICCULAR FORMULA LA. N3-09. 6H20 MCLECULAR WEIGHT: 433.06
CERCLA RATINGS (SCALE 0-3) HEALTHH a FIREE 0 REACTIVITY=0 PERSISTENCE:3
NFPA RATINGS CSCALE 0-4): HEALTH=2 FIREEO Y EACTIVITYE
COMPONFNTS enn CONTAMINANTS
COMPONENT LANTHANUM NITRATE Hi EXAHYDRATE
PERCENT: 100
OTHER SINUNINO0.1N NONE Exxe OSURE LIMITS:
NO OCCUPATIONAL EXPOSURE LIMITS ESTABLISHED BY OSHA, ACGIH, OR NIOSH, DESCRIPTION ODORLESS, COLORLESS TO WHITE DELIQUESCENT TRICLINIC CRYSTALS
PHYSICAL DATA
BOILING POINT: 259 F C126 C DECOMPOSES SPECIFIC GRAVITY 1. o BOILING POINT: 2.5 F C126 0) FIRE AND EXPLOSION HAZARDI
MELTING POINT: 1nt F C40 C
SOLURILITY IN WATERI SOLUBLE FIRE AND EXPLOSION DATA
SOLVENT SOLUBILITY SOLUBLE IN ALCOHOL. ACIDS, ACKTONIF NEGLIGIBLE FIRE HAZARD WHEN EXPOSEE TO HEAT OR FLAME, MAY RESULT IN IGNITION, VIOLENT n COMBUSTION OR EXPLOSION, DRY CHEMICAL, CARBON DIOXIDE, HOLON OR WATER SPRAY C1987 EMERGENCY RESPONSE GUIDEBOOK, DOT P S800, 4 FOR LARGER FIRES, USE WATER SPRAY OR FOG C1987 EMERGENCY RESP ONSE ACOEtacine DOT P 5800, 4 GUIDEBOOK, DOT P 5800, * GUIDE PAGE s.s POSSIBLE. EVACUATE TO A DISTANCE OF 2.500 FEET.
OXIDIZER: OXTOTZFRS DECOMPOSK. ESP. ECIALLY WHFN LEATED TO YIELD OXYGEN OR OTHER GASKS WHICH WILL INCREASE THE BURNING RATE OF COMBIISTTELE MATTER CONTACT WITH EASILY OXIDIZAHLE. ORGANIC. OR OTHER COMBUSTIBLE MATERIALS
N
FIREFIGHTING MEDIO FIREFIGHTING:
MOVE CONTAINERS FROM FIRE AREA IF POSSIBLE, COOL CONTAINERS EXPOSEE TO FLAMES VITH WATER FROM SIDE UNTIL WELL AFTER FIRE IS OUT, STAY AUMU FROM STORAGE TONK ENDS, FOR MASSIVE FIRE IN STORAGE AREA, USE UNMANNED HOSE HOL DER OR MONITOR NOZZLES; ELSE WITHDROS FROM AREA AND LET FIRE BURN C1987 EMERGENCY RESPONSE FLOOD WITH VATER. COOL CONTAINERS, APPLY WATER FROM AS GREAT A DISTANCE AS DEPARTMENT OF TRANSPORTATION HAZARE CLASSIFICATION 4:90FR172, 101:
TRANSPORTOTION DATA
