**LANTHONUM NITROTE HE
*KLANTHANUM NITRATE HEAMM
*XLANTHANUM NITRATE HEXAH
XXLANTHANUM NITRATE HEXAH
MATERIAL SAFETY DATA SHEET
EMERGENCY CONTACTS:
AFTER BUSINESS HOURS: HOLIDAYS:
(201) 796-7523

F

0000 1 1 854

FISHER SCIENTIFIC
CHEMICAL DIVISION
1 REAGENT LANE
FAIR LAWN 2 - 07+10
C201) 796-7100

DATE: 05/19/89
ACCT: 558080-03
INDEXI 03891320023

GASTON - PILLORI: (201) 796-7100 PO NBR: J018010
CHEMTREC ASSISTANCE: C800) 429.930r CAT NO. L10500

THE INFORMATION BELOW IS BELIEVED TO BE ACCURATE AND REPRESENTS THE BEST
INF ORMATION CURRENTLY AVAILABLE - TO US, HOWEVER, WE MAKE NO WARRANTY OF
MERCHANTABILITY OR ANY OTHER WARRANTY, EXPRESS OR IMPLIED WITH RESPECT TO
SUCH INFORMATION, AND WE ASSUME NO LIABILITY RESULTING FROM ITS USE, USERS
SHOULD MAKE THEIR OWN INVESTIGATIONS TO DETERMINE THE SUITABILITY OF THE

INFORMATION FOR THEIR PARTICULAR PURPOSES.
SUBSTANCE: *EIANTHONUM NITRATE HEXAHYDRATEXX
LANTHANUMC III) NITRATE, HEXAHYDRATE 5 3: 621
NITRIO ACID LANTHANUMC : SALT. HEXAHYDRATE,
LANTHANUM TRINITRATE HEXAHYDRATE, L- 10; ACC12+60

SUBSTANCE IDENTIFICATION

CAS- NUMB a ER 10277-43-7

TRADE NAMES/ SSANONAAS
CHEMICAL FAMILY:
INORGANIC SALT

MOL ECULAR FORMULA: LA. N3- 09, 6H20
MOL ECULAR WEIGHT: +33. 06

CERCLA RATINGS (SOALE 0-3)1 HEALTH= et FIRE: o REACTIVITY: C PERSISTENCE:3

NFPA RATINGS CSCALE 0-4): HEALTH= a FIRE:O REACTIVITY:O

-

-

COMP ONENTS AND CONTAMINANTS

COMP ONENT LANTHANUM NITRATE HEXAHYDRATE

PERCENT: 100

OTHER CONTAMINANTS: NONE
EXP OSURE LIMITS:

NO OCOUP ATIONAL EXP OSURE LIMITS ESTORLILISHEC BY OSHA, ACGIH, OR NIOSH,
DESCRIPTION: ODORLESS COLORLESS TO WHITE DELIQUESCENT TRICLNICC CRYSTALS

PHYSICAL DATA

BOILING POINT: 259 F (126 C) DECOMP OSES
SPEOIFIO GRAVITY: - o
BOILING POINT: 259 F C126 o>
FIRE AND EXPLOSION wazaon

MELTINE POINT: 10+ F C+0 c>

SOLURILITY IN WATERI SOLUBLE
FIRE AND EXPLOSION DATA

SOLVENT SOLURTILITY: SOLUBLE NI ALCOHOL, OCIDS. ACETONE
NEGLIGIBLE FIRE HAZARD WHEN EXPOSED TO HEAT OR FLAME,
MAY RESULT IN IGNITION, VIOLENT COMBUSTION OR EXPL OSION,
DRY CHEMICAL CARBON DIOXIDE, HALON OR WATER SPRAY
(1987 EMERGENCY RESP ONSE GUIDEBOOK, DOT a 5800, +).
FOR LARGER FIRES, USE WATER SPRAY OR FOG
C1987 EMERGENCY RESP ONSE GUIDEBOOK. DOT P 5800. 5
GUIDEBOOK, DOT P 5800, + GUIDE PAGE 352
POSSIBLE, EVACUATE TO A DISTANCE OF 2500 FEET,

OXIDIZER: OXIDIZERS DECOMP OSE, ESP ECIALLY WHEN HEATED, 9 YIELD OXYGEN OR
OTHER GASES WHICH WILL INCREASE THE BURNING RATE OF COMBUSTIBLE MATTER.
CONTACT WITH EASILY OXIDIZABLE, ORGANIC, OR OTHER COMBUSTIBLE MATERIALS

FIREFIGHTING MEDIA:
FIREFIGHTING:

MOVE CONTAINERS FROM FIRE AREA IF POSSIBLE COOL CONTAINERS EXPOSED TO FLAMES
HIIA VATER FROM SIDE UNTIL WELL AFTER FIRE SI OUT, STAY AWAY FROM STORAGE TANK
ENDS, FOR MASSIVE FIRE NI STORAGE AREA, USE UNMANNED HOSEHOLDERR OR MONITOR
NOZZLES; ELSE WITHDRAW FROM AREA AND LET FIRE BURN (1987 EMERGENCY RESPONSE
FLOOD WITH VATER. COOL CONTAINERS APPLY WATER FROM AS GREAT A DISTANCE AS
DEPARTMENT OF TRANSPORTATION HAZARD CLASSIFICATION 49CFR172, 101:

TRANSPORTATIINN DATA

-