NELANTHANUM NITRATE HE *RLANTHANUM NITRATE HEAHD EELANTHANUM NITRATE HEXAH ERLANTHANUM NITRATE HEXAH MATERIAL SAFETY DATA SHEET EMERGENCY CONTACTS AFTER BUSINESS HOURS, HOLIDAYS: (201) 796-7523
000011054
FISHER SCIENTIFIC CHEMICAL NOISIAIO et REAGENT LANE FAIR LAWN E 07410 C201) 796-7100
DATE:
05/19/89 ACOT: 558080-03 INDEX 03891320023
GASTON L. PILLORI c201) 796-7100 od NBR: J018010 CHEMTREC ASSISTANCE: C800) 429-9300 CAT NOI L10500
THE INFORMATION RELOW Is BELIEVED TO BE ACCURATE AND REPRESENTS THE BEST INFORMATION CURRENTLY AVAILABLE TO US, HOWEVER, # MAKE NO WARRANTY OF MERCHANTABILITY OR ANY OTHER WARRANTY, EXPRESS OR IMPLIED, WITH RESPECT TO SUCH INFORMATION, AND WE ASSUME NO LIABILITY RESULTING FROM ITS USE. USERS SHOULD MAKE THEIR OWN INVESTIGATIONS TO DETERMINE THE SUITABILITY OF THE
INFORMATION FOR THEIR PARTICULAR PURPOSES SURSTANCE: EELANTHANUM NITBATE HEXAHYDRATE** LANTHANUNCIEEZ NITRATE, HEXAHYDRATE 3 : NITRIO AOID, LANTHANUMC3*? SALT, HEXARYDRATE LANTHANUM TRINETRATE HEXANVORATE L-10; ACCIè+60
SUBSTANCE IDENTIFICATION
CAS-NUMBER 10277-93-7
TRADE NAMES/SYNONVNS. CHEMICAL FAMILY INORGANIO SALT
MOLECULAR FORMULAI LA. N3-09. 6H20 MOLECULAR WEIGHT: +33.06
CERCLA RATINGS (SOALE 0-3)1 HEALTHa 2 FIRE:O REACTIVITY.G PERSISTENCES3
NFPA RATINGS CSCALE 0-4): HEALTHsa FIRE=O REACTIVITV.D
COMPONENTS AND CONTAMINANTS
COMPONENTI LANTHANUM NITRATE HEXANYDRATE
PERCENT: 100
OTHER CONTAMINANTS NONE EXPOSURE LIMITS:
NO CCCUPATIONAL EXPOSURE LIMITS ESTABLISHED BY OSHA, ACGIH, OR NIOSH. DESCRIPTION ODORLESS COLORLESS TO WHITE DELIQUESCENT TRIGLINIC CRYSTALS.
PHYSICAL DATA
BOILING POINT: 259 F (126 9 DECOMPOSES SPEOIFIC GRAVITY: 1. 0 BOILING POINT: 259 F (126 9 FIRE AND EXPLOSION HAZARDI
MELTTND POINT: 10t L C+0 C)
BOLURILITY IN WATER: SOLUBLE FIRE AND EXPLOSION DATA
SOLVENT SOLUSILITY: SOLUBLE IN ALCOHOL. ACIDS, ACETONE NEGLIGIBLE FIRE HAZARD WHEN EXPOSED TO HEAT OR FLAME. MAY RESULT IN IGNITION, VIOLENT COMBUSTION 5 EXPLOSION, DRY CHEMICAL, CARRON DIOXIDE, HALON OR WATER SPRAY (1987 EMERGENCY RESPONSE GUIDEBOOK, DOT P 5800.4). FOR LARGER FIRES. USE WATER SPRAY OR FOG C1987 EMERGENCY RESPONSE GUIDEBOOK DOT d 5800.4). GUIDEBOOK, DOT a 5800, - GUIDE PAGE 353 POSSIBLE. EVACUATE TO A DISTANCE OF 2500 FEET.
OXIDIZER: OXIDIZERS DECOMP OSE, ESPEGIALLY WHEN HEATED. TO YIELD OXYGEN OR OTHER GASES WHICH WILL INCREASE THE BURNING RATE OF COMBUSTIBLE MATTER. CONTACT WITH EASILY OXIDIZABLE ORGANIC. OR OTHER COMBUSTIBLE MATERIALS
FIREFIGHTING MEDIA FIREFIGHTING
MOVE CONTAINERS FROM FIRE AREA IF POSSIBLE COOL CONTAINERS EXPOSED TO FLAMES WITH WATER FROM SIDE UNTIL WELL AFTER FIRE IS OUT, STAY AWAY FROM STORAGE TANK ENDS. FOR MASSIVE FIRE NI STORAGE AREA, USE UNMANNED HOSE HOLDER OR MONITOR NOZZLES, ELSE WITHORAW FROM AREA AND LET FIRE BURN C1987 EMERGENCY RESPONSE FLOOD WITH WATER, COOL CONTAINERS APPLY WATER FROM AS GREAT A DISTANCE AS DEPARTMENT OF TRANSPORTATION HAZARD CLASSIFICATION +9CFR172, 101:
TRANSPORTATION DATA
III
