HANUM NITRATE HF **LANTHANUM NITRATE HEAMM XLANTHANUM NITRATE HEXAH * ANTHANUM NITRATE HEXAH MATERIAL SAFETY DATA SHEET EMERGENCY CONTACTS: AFTER BUSINESS HOURS: HOLIDAYS: (201) 796-7523
00001 1 854
FISHER SCIENTIFIO CHEMICAL DIVISION - REAGENT LANE FAIR LAWN NJ 07+10 M 201) 796-7100
DATE: 05/19/89 ACCT: 558080-03 INDEXI 03891320023
GASTON - PILLORI: (201) 796-7100 PONBR: J018010 CHEMTREO ASSISTANCE: C800) +29-9300 CAT NO. L10500
THE INFORMATION BELOW IS BELIEVED 0 BE ACCURATE AND REPRESENTS THE BEST INFORMATION CURRENTLY AVAILABLE TO 5 HOWEVER, : MAKE NO WARRANTY OF MERCHANTASILITY OR ANY OTHER WARRANTY, EXPRESS OR IMPL IED WITH RESP ECT TO SUCH INFORMA TION, AND -R ASSUME NO IADILI IT RESULTING FROM ITS USE, USERS SHOULD MAKE THEIR OWN INVESTIGATIONS TC DETERMINE THE SUITABILITY OF - HE
INFORMATION FOR THEIR PARTICULAR PURPOSES. SUBSTANCE: EXLANTHANUM NITRATE HEXAHYDRAATEX LANTHANUMCIII) NITRATE HEXAHYDRATE - a NITRIO ACID, ANT THANU > - BAL HEXAHYDRATE LANTHANUM TRINITRATE HÈXAHYDRATE, L-10; ACC12460
SUBSTANCE IDENTIFICA - TTON
CAS-NUMRER 10277-43-7
TRADE NAMES/ SYNONYMS: CHEMICAL FAMILY: INORGANIO SALT
MOL ECULAR FORMULA: LA. N3-09. 6H20 MOL ECULAR WEIGHT: +33, 06
CERCLA RATINGS (SOALE 0-3)1 HEALTH= 2 FIRE:O REACTIVITY:C PERSISTENCE:3
NFPA RATINGS CSCALE C 2 HEALTH= 1 FIRE=0 REACTIVITY:O
COMPONENTS AND CONTAMINANTS
COMPONENT: LANTHANUM NITRATE HEXAHYDRATE
PERCENT: 100
OTHER CONTOMINONTS NONE EXP OSURE LIMITS:
NO OCCUPATIONAL EXPOSURE LIMITS ESTABLISHED BY OSHA, ACGIH, OR NIOSH, DESCRIPTION: ODORLESS COLORLESS TO WHITE DELIQUESCENT TRICLINIC CRYSTALS,
PHYSICAL DATA
BOILING POINT: 259 F (126 C) DECOMPOSES SP ECIFIC GRAVITY: 1.0 BOILING POINT: 259 F C126 o> FIRE AND EXPL OSION HAZARD:
MELTING POINT: 10+ F C+0 9
SOLUBILITY IN WATERI SOLUBLE FIRE AND EXPLOSION DATA
SOLVENT SOLUBILITY: SOLUBLE IN ALCOHOL, ACIDS, ACETONE NEGLIGIBLE FIRE HAZARD WHEN EXPOSED TO HEAT OR FLAME, MAY RESULT IN IGNITION, VIOLENT COMBUSTION OR EXPL OSION, DRY CHEMICAL CARBON DIOXIDE, HALON OR WATER SPRAY (1987 EMERGENCY RESPONSE GUIDEBOOK, DOT P 5800, 2 FOR LARG ER FIRES, USE WATER SPRAY OR FOG (1987 EMERGENCY RESPONSE GUIDEBOOK, DOT P 5800. 3 GUIDEBOOK, DOT . 5800, * GUIDE PAGE 35) POSSIBLE, EVACUATE TO A DISTANCE OF 2500 FEET.
OXIDIZER: OXIDIZERS DECOMPOSE, ESPECIALLY WHEN HEATED, TO YIELD OXYGEN OR OTHER GASES WHICH WILL INCREASE THE BURNING RATE OF COMBUSTIBL E MATTER, CONTACT WITH EASIL y OXIDI: ZABL 4 ORGANIC OR OTHER COMBUSTIBLE MATERIALS
FIREFIGHTING MEDIA FIREFIGHTING:
MOVE CONTAINERS FROM FIRE AREA IF d OSSIBLE, COOL CONTAINERS EXPOSED TO FLAMES WITH WATER FROM SIDE UNTIL WELL AFTER FIRE SI OUT. STAY AWAY FROM STORAGE TANK ENDS, FOR MASSIVE FIRE IN STORAGE AREA, USE UNMANNED HOSE HOLDER OR MONITOR NOZZLI ES; EL SE WITHDRAW FROM AREA AND LET FIRE BURN C1987 EMERGENCY RESPONSE FL OOD WITH WATER, COOL CONTAINERS APPLY WATER FROM AS GREAT A DISTANCE AS
RTAT TION DATA FE
DEPARTMENT OF TRI
- - TAT a HAZARD
-
